/*--------------------------------*- C++ -*----------------------------------*\
| =========                 |                                                 |
| \\      /  F ield         | OpenFOAM: The Open Source CFD Toolbox           |
|  \\    /   O peration     | Version:  2306                                  |
|   \\  /    A nd           | Website:  www.openfoam.com                      |
|    \\/     M anipulation  |                                                 |
\*---------------------------------------------------------------------------*/
FoamFile
{
    version     2.0;
    format      ascii;
    arch        "LSB;label=32;scalar=64";
    class       volScalarField;
    location    "0.02";
    object      p;
}
// * * * * * * * * * * * * * * * * * * * * * * * * * * * * * * * * * * * * * //

dimensions      [1 -1 -2 0 0 0 0];

internalField   nonuniform List<scalar> 
311
(
472731
467125
460865
453844
445418
436097
425010
412044
396192
374708
349105
319820
288974
258131
228535
204110
183898
165235
152987
145878
140623
137849
136866
136859
137187
137574
137469
136809
135370
133657
132305
130109
128379
127872
127548
127409
127275
126930
126793
126700
127301
128605
130205
132483
135616
139384
144029
148364
151250
151993
149409
144215
138188
130444
126663
141318
182393
295367
387158
410978
422902
432846
441321
449959
456400
463859
470932
476881
482747
488734
494596
436869
421295
405055
386041
366396
354426
330969
304541
318625
396902
351995
307903
274685
250569
231797
218651
210797
203590
203333
205690
214481
235776
264188
288079
286909
280064
269686
258542
248863
239819
232503
225287
218153
218967
221635
476114
470567
464317
457413
449016
439947
429008
416336
400711
378337
349399
314915
277653
242327
210031
185149
166365
150824
142940
139233
136665
136032
136371
136763
137240
137055
136180
134725
132729
131086
129915
128759
129318
130272
132124
129832
128422
127955
127851
127422
127490
127745
128640
129685
131264
133854
135809
137106
137691
137995
137432
137321
139104
141943
141487
141065
139997
138133
135687
133187
131086
133715
136526
139695
142888
145348
146744
147808
143733
142138
146359
157559
172442
192343
224401
260678
303229
283426
235568
199461
172927
158862
149385
145265
147429
146994
152404
160652
176158
205914
248961
323044
337788
345347
380180
404215
419809
432181
443068
451958
460347
463020
454618
445936
435133
423236
408024
382806
386698
411023
426649
430024
418337
440409
437653
448590
456825
465471
468168
459361
450351
454390
462379
470247
474111
480651
477897
475366
472619
469991
467236
473446
479000
481910
476212
478970
485009
488304
481850
484535
491715
494309
487403
440056
424256
407437
387065
361965
340902
336054
308019
303929
348986
328472
299538
272452
250010
232485
220284
212322
206067
206213
209434
219321
237910
260134
280864
284125
278298
269010
258563
248921
239890
232080
225223
225718
231509
239633
248609
258108
267717
275510
278562
271168
253425
239477
227084
215805
210655
209985
215576
223074
233995
249100
269489
293090
311938
310311
290404
307312
309776
338212
363609
386418
408951
)
;

boundaryField
{
    bottom
    {
        type            symmetryPlane;
    }
    inlet1
    {
        type            fixedValue;
        value           nonuniform List<scalar> 0();
    }
    outlet1
    {
        type            zeroGradient;
    }
    top
    {
        type            zeroGradient;
    }
    wall1
    {
        type            zeroGradient;
    }
    bottomEmptyFaces
    {
        type            empty;
    }
    topEmptyFaces
    {
        type            empty;
    }
    procBoundary7to3
    {
        type            processor;
        value           nonuniform List<scalar> 
34
(
226769
442752
426435
226659
231507
239153
248044
257172
265389
270036
266972
256568
246452
242123
237212
227049
219858
217620
220842
227766
237075
248706
264399
280923
284450
277140
278802
278802
301907
331501
360379
385994
410407
426435
)
;
    }
    procBoundary7to6
    {
        type            processor;
        value           nonuniform List<scalar> 
13
(
478190
499811
497436
449287
481507
484302
487167
490302
493672
497103
500215
497436
452848
)
;
    }
}


// ************************************************************************* //
