/*--------------------------------*- C++ -*----------------------------------*\
| =========                 |                                                 |
| \\      /  F ield         | OpenFOAM: The Open Source CFD Toolbox           |
|  \\    /   O peration     | Version:  2306                                  |
|   \\  /    A nd           | Website:  www.openfoam.com                      |
|    \\/     M anipulation  |                                                 |
\*---------------------------------------------------------------------------*/
FoamFile
{
    version     2.0;
    format      ascii;
    arch        "LSB;label=32;scalar=64";
    class       volScalarField;
    location    "0.02";
    object      rho;
}
// * * * * * * * * * * * * * * * * * * * * * * * * * * * * * * * * * * * * * //

dimensions      [1 -3 0 0 0 0 0];

internalField   nonuniform List<scalar> 
311
(
3.12849
3.1024
3.07313
3.04013
3.00025
2.95583
2.90252
2.83957
2.76166
2.65431
2.52406
2.3714
2.20605
2.03537
1.86572
1.72035
1.59631
1.47894
1.39943
1.35216
1.31729
1.29902
1.29275
1.29275
1.29496
1.29758
1.29688
1.29247
1.28286
1.27145
1.26248
1.24761
1.23496
1.22927
1.22388
1.21963
1.21702
1.21421
1.21309
1.21237
1.21652
1.22545
1.23606
1.25096
1.27151
1.29619
1.32658
1.35463
1.373
1.37748
1.35903
1.32383
1.28307
1.23178
1.2071
1.3148
1.58655
2.24766
2.72451
2.84292
2.90173
2.95021
2.99129
3.03298
3.06392
3.0995
3.13317
3.16137
3.18907
3.21726
3.24465
2.97364
2.89743
2.81717
2.72264
2.62351
2.5616
2.43942
2.29915
2.37276
2.76865
2.54094
2.30941
2.12876
1.99368
1.88589
1.80892
1.76246
1.71929
1.71799
1.7322
1.78476
1.90942
2.07099
2.2028
2.19653
2.15916
2.10187
2.03956
1.9848
1.93312
1.89088
1.84893
1.80697
1.81227
1.82944
3.14617
3.12047
3.09138
3.05907
3.01947
2.9764
2.92396
2.86261
2.78601
2.67448
2.52712
2.34693
2.14552
1.94721
1.75833
1.60658
1.48839
1.38788
1.33485
1.30939
1.2919
1.28744
1.28975
1.29245
1.29541
1.29409
1.28812
1.27826
1.26478
1.25369
1.24566
1.23556
1.23957
1.24641
1.25926
1.24007
1.23011
1.22653
1.22584
1.21938
1.21973
1.22135
1.22765
1.23487
1.25005
1.27118
1.28452
1.29347
1.2977
1.30023
1.29698
1.29641
1.30896
1.32452
1.3208
1.31743
1.30963
1.29665
1.28013
1.26321
1.24438
1.2619
1.28056
1.30138
1.32274
1.33927
1.34859
1.35553
1.33624
1.32934
1.35798
1.43286
1.52807
1.65227
1.84452
2.05269
2.28676
2.18031
1.909
1.69411
1.5288
1.43806
1.37516
1.3466
1.35298
1.34976
1.38715
1.44256
1.54391
1.73033
1.98615
2.39505
2.47123
2.5087
2.68622
2.80589
2.88228
2.94211
2.99424
3.03639
3.07588
3.09103
3.05147
3.01028
2.95851
2.90099
2.8265
2.70121
2.72173
2.84252
2.91889
2.93612
2.87904
2.98647
2.97215
3.02461
3.06379
3.10459
3.11874
3.0771
3.03429
3.05412
3.09221
3.12955
3.14817
3.17899
3.16551
3.15256
3.13805
3.12357
3.10803
3.13684
3.16247
3.17866
3.1524
3.16753
3.1954
3.21272
3.1828
3.1966
3.23007
3.24303
3.21067
2.99005
2.91315
2.83039
2.72888
2.60186
2.49325
2.46658
2.31887
2.29532
2.52987
2.4221
2.26712
2.11829
1.99198
1.89102
1.81948
1.77234
1.73499
1.73593
1.75533
1.81415
1.92268
2.04933
2.16436
2.18241
2.15039
2.09896
2.04045
1.98583
1.93412
1.88904
1.84907
1.85351
1.8876
1.93451
1.98609
2.04011
2.09416
2.13762
2.15459
2.11366
2.01403
1.93402
1.86176
1.79524
1.76449
1.76047
1.79385
1.8383
1.9025
1.98994
2.10502
2.23558
2.33764
2.33125
2.22382
2.31676
2.32872
2.48054
2.61173
2.72767
2.84049
)
;

boundaryField
{
    bottom
    {
        type            symmetryPlane;
    }
    inlet1
    {
        type            calculated;
        value           nonuniform List<scalar> 0();
    }
    outlet1
    {
        type            calculated;
        value           nonuniform List<scalar> 9(1.21963 1.22388 1.22927 1.23496 1.21702 1.24761 1.82944 1.81227 1.80697);
    }
    top
    {
        type            calculated;
        value           nonuniform List<scalar> 
32
(
3.12849
3.1024
3.07313
3.04013
3.00025
2.95583
2.90252
2.83957
2.76166
2.65431
2.52406
2.3714
2.20605
2.03537
1.86572
1.72035
1.59631
1.47894
1.39943
1.35216
1.31729
1.29902
1.29275
1.29275
1.29496
1.29758
1.29688
1.29247
1.28286
1.27145
1.26248
1.24761
)
;
    }
    wall1
    {
        type            calculated;
        value           nonuniform List<scalar> 
68
(
3.24465
3.21726
3.18907
3.13317
3.16137
3.0995
3.03298
3.06392
2.99129
2.95021
2.84292
2.90173
2.72451
2.24766
1.58655
1.3148
1.2071
1.23178
1.28307
1.32383
1.35903
1.37748
1.373
1.35463
1.32658
1.29619
1.27151
1.25096
1.23606
1.22545
1.21652
1.21237
1.21309
1.21421
1.21702
2.97364
2.89743
2.81717
2.72264
2.62351
2.5616
2.43942
2.29915
2.37276
2.76865
2.54094
2.30941
2.12876
1.99368
1.88589
1.80892
1.76246
1.71929
1.71799
1.7322
1.78476
1.90942
2.07099
2.2028
2.19653
2.15916
2.10187
2.03956
1.9848
1.93312
1.89088
1.84893
1.80697
)
;
    }
    bottomEmptyFaces
    {
        type            empty;
    }
    topEmptyFaces
    {
        type            empty;
    }
    procBoundary7to3
    {
        type            processor;
        value           nonuniform List<scalar> 
34
(
1.86181
3.00528
2.92622
1.86124
1.88993
1.93469
1.9858
2.03793
2.08447
2.11067
2.0938
2.03524
1.97752
1.95241
1.92375
1.86448
1.82207
1.80881
1.82801
1.86896
1.92351
1.99066
2.07954
2.1719
2.19151
2.15181
2.16176
2.16176
2.28966
2.4475
2.59753
2.72814
2.85005
2.92622
)
;
    }
    procBoundary7to6
    {
        type            processor;
        value           nonuniform List<scalar> 
13
(
3.15382
3.26905
3.25787
3.03369
3.1711
3.18688
3.20278
3.21965
3.23736
3.25497
3.27042
3.25787
3.05166
)
;
    }
}


// ************************************************************************* //
