/*--------------------------------*- C++ -*----------------------------------*\
| =========                 |                                                 |
| \\      /  F ield         | OpenFOAM: The Open Source CFD Toolbox           |
|  \\    /   O peration     | Version:  2306                                  |
|   \\  /    A nd           | Website:  www.openfoam.com                      |
|    \\/     M anipulation  |                                                 |
\*---------------------------------------------------------------------------*/
FoamFile
{
    version     2.0;
    format      ascii;
    arch        "LSB;label=32;scalar=64";
    class       volScalarField;
    location    "0.02";
    object      T;
}
// * * * * * * * * * * * * * * * * * * * * * * * * * * * * * * * * * * * * * //

dimensions      [0 0 0 1 0 0 0];

internalField   nonuniform List<scalar> 
311
(
526.312
524.444
522.344
519.97
517.1
513.887
510.02
505.422
499.687
491.707
481.748
469.748
456.254
441.734
426.649
413.25
401.258
389.147
380.774
375.773
371.825
369.616
368.762
368.741
368.993
369.289
369.206
368.686
367.542
366.147
365.02
363.24
362.08
362.32
362.992
363.862
364.257
364.113
364.053
364.004
364.482
365.533
366.902
368.875
371.499
374.549
378.163
381.478
383.697
384.329
382.924
379.439
375.132
368.855
365.486
374.372
400.422
457.715
494.952
503.522
507.629
511.027
513.879
516.734
518.838
521.264
523.525
525.41
527.253
529.115
530.942
511.714
506.45
500.8
493.865
486.443
481.924
472.569
461.363
467.725
499.321
482.51
464.383
449.44
437.761
428.109
421.014
416.59
412.45
412.242
413.6
418.574
430.093
444.323
455.513
454.958
451.791
446.907
441.528
436.724
432.104
428.282
424.404
420.508
420.842
421.974
527.099
525.249
523.15
520.815
517.959
514.841
511.043
506.578
500.971
492.724
481.57
467.366
450.75
433.463
416.051
401.405
389.323
378.513
372.978
370.372
368.461
368.026
368.281
368.568
369.009
368.886
368.231
367.105
365.523
364.19
363.264
362.977
363.371
364.045
365.452
364.669
363.632
363.364
363.277
363.974
364.063
364.307
364.977
365.792
365.748
366.766
368.257
369.201
369.568
369.665
369.079
368.942
370.15
373.266
373.113
372.955
372.336
371.057
369.189
367.241
366.917
369.08
371.348
373.887
376.256
378.01
379.003
379.799
374.66
372.425
375.397
383.003
393.063
405.471
423.744
442.329
461.865
452.778
429.809
410.091
393.983
384.777
378.373
375.739
379.54
379.321
382.68
387.897
397.415
414.497
436.601
469.798
476.097
479.482
492.96
501.77
507.318
511.647
515.404
518.447
521.292
521.747
518.921
515.977
512.286
508.159
502.807
493.61
494.869
503.647
509.115
510.132
506.107
513.643
512.889
516.588
519.345
522.219
522.862
519.968
516.962
518.212
520.826
523.369
524.549
526.629
525.841
525.204
524.585
524.085
523.619
525.706
527.561
528.063
526.166
526.685
528.674
529.397
527.311
527.96
530.231
530.899
528.757
512.617
507.258
501.393
494.042
484.56
476.242
474.546
462.664
461.203
480.479
472.358
460.196
447.991
437.158
428.217
421.695
417.266
413.691
413.759
415.578
421.086
430.994
442.13
451.993
453.459
450.771
446.404
441.372
436.6
432.008
427.918
424.251
424.164
427.19
431.46
435.996
440.668
445.276
448.922
450.321
446.855
438.276
431.287
424.841
418.701
415.831
415.456
418.581
422.665
428.396
436.011
445.912
456.64
464.787
463.63
454.849
462.021
463.334
474.905
484.922
493.435
501.466
)
;

boundaryField
{
    bottom
    {
        type            symmetryPlane;
    }
    inlet1
    {
        type            fixedValue;
        value           nonuniform List<scalar> 0();
    }
    outlet1
    {
        type            zeroGradient;
    }
    top
    {
        type            zeroGradient;
    }
    wall1
    {
        type            zeroGradient;
    }
    bottomEmptyFaces
    {
        type            empty;
    }
    topEmptyFaces
    {
        type            empty;
    }
    procBoundary7to3
    {
        type            processor;
        value           nonuniform List<scalar> 
34
(
424.241
513.145
507.587
424.164
426.659
430.556
435.068
439.539
443.456
445.62
444.113
439.088
434.086
431.946
429.488
424.156
420.281
419.054
420.791
424.476
429.295
435.163
442.85
450.518
452.091
448.599
449.213
449.213
459.267
471.767
483.239
492.809
501.564
507.587
)
;
    }
    procBoundary7to6
    {
        type            processor;
        value           nonuniform List<scalar> 
13
(
528.114
532.536
531.823
515.842
528.88
529.316
529.803
530.419
531.142
531.941
532.741
531.823
516.869
)
;
    }
}


// ************************************************************************* //
