/*--------------------------------*- C++ -*----------------------------------*\
| =========                 |                                                 |
| \\      /  F ield         | OpenFOAM: The Open Source CFD Toolbox           |
|  \\    /   O peration     | Version:  2306                                  |
|   \\  /    A nd           | Website:  www.openfoam.com                      |
|    \\/     M anipulation  |                                                 |
\*---------------------------------------------------------------------------*/
FoamFile
{
    version     2.0;
    format      ascii;
    arch        "LSB;label=32;scalar=64";
    class       volVectorField;
    location    "0.02";
    object      U;
}
// * * * * * * * * * * * * * * * * * * * * * * * * * * * * * * * * * * * * * //

dimensions      [0 1 -1 0 0 0 0];

internalField   nonuniform List<vector> 
311
(
(320.405 82.5762 0)
(326.352 86.0872 0)
(332.824 89.4345 0)
(339.343 92.9253 0)
(346.297 96.4314 0)
(353.822 99.7653 0)
(362.394 103.75 0)
(372.979 106.919 0)
(386.275 111.324 0)
(405.401 115.361 0)
(429.277 117.574 0)
(456.413 117.188 0)
(487.207 112.981 0)
(519.174 105.43 0)
(548.958 96.1211 0)
(578.289 78.7217 0)
(601.736 64.3195 0)
(619.422 57.0233 0)
(635.323 39.3473 0)
(643.523 21.5247 0)
(649.094 19.8402 0)
(649.672 21.6393 0)
(648.429 19.8135 0)
(647.407 16.4825 0)
(647.907 14.6944 0)
(647.606 14.7067 0)
(647.738 15.2272 0)
(648.453 15.415 0)
(650.015 14.6914 0)
(652.599 11.6384 0)
(654.39 8.82483 0)
(656.692 6.1431 0)
(657.175 2.43864 0)
(659.103 0.241171 0)
(661.024 -0.484944 0)
(663.814 -0.971293 0)
(664.931 -0.23073 0)
(664.927 -0.119196 0)
(664.778 0.59791 0)
(664.912 1.40706 0)
(664.734 2.67393 0)
(663.488 2.47995 0)
(661.744 2.62549 0)
(660.031 4.24065 0)
(657.247 3.70222 0)
(652.816 4.0879 0)
(647.007 3.06204 0)
(641.617 1.51938 0)
(638.54 -1.23453 0)
(637.77 -3.37888 0)
(641.196 -7.04983 0)
(645.334 -5.67991 0)
(647.506 0.315423 0)
(649.635 25.6692 0)
(648.657 59.3625 0)
(625.588 105.246 0)
(565.874 142.761 0)
(468.297 144.141 0)
(393.974 137.313 0)
(372.367 128.271 0)
(362.414 127.524 0)
(353.93 122.755 0)
(346.064 120.672 0)
(340.041 117.085 0)
(334.222 117.445 0)
(328.554 114.24 0)
(323.596 111.516 0)
(319.04 111.662 0)
(314.211 108.697 0)
(308.598 107.264 0)
(304.552 104.372 0)
(352.982 51.4575 0)
(366.173 53.3398 0)
(380.442 55.6172 0)
(397.607 59.0521 0)
(417.637 63.5973 0)
(429.483 61.7781 0)
(449.92 64.3071 0)
(474.321 65.872 0)
(459.598 59.9399 0)
(402.861 37.4652 0)
(447.471 14.553 0)
(482.895 -0.156499 0)
(511.496 -3.47491 0)
(533.437 -4.29579 0)
(550.75 -4.47399 0)
(562.467 -4.04567 0)
(568.548 -2.97518 0)
(574.378 -3.48008 0)
(573.299 -0.82787 0)
(570.716 0.725266 0)
(561.273 2.79793 0)
(539.248 5.52535 0)
(513.145 6.54917 0)
(492.099 4.91145 0)
(494.938 1.0641 0)
(501.348 -0.742263 0)
(511.198 -1.63625 0)
(521.976 -2.17703 0)
(531.537 -2.18547 0)
(540.397 -2.28395 0)
(547.653 -1.90037 0)
(554.636 -2.21794 0)
(561.143 -1.69924 0)
(560.539 -4.04371 0)
(558.595 -6.00326 0)
(318.74 85.6842 0)
(324.612 89.2778 0)
(331.048 92.6269 0)
(337.387 96.3088 0)
(344.316 99.8434 0)
(351.632 103.453 0)
(360.134 107.605 0)
(370.559 111.042 0)
(383.863 115.959 0)
(404.232 119.545 0)
(430.166 120.23 0)
(462.795 115.485 0)
(498.115 104.165 0)
(533.301 88.1561 0)
(564.807 70.6688 0)
(589.485 49.4219 0)
(609.109 34.1743 0)
(621.764 32.0974 0)
(633.295 20.3595 0)
(639.302 11.0176 0)
(646.484 12.0382 0)
(646.663 16.3159 0)
(645.953 17.9411 0)
(645.245 17.2379 0)
(645.814 15.7976 0)
(646.737 14.2809 0)
(648.073 13.272 0)
(649.922 11.8301 0)
(651.882 9.79251 0)
(654.422 6.0307 0)
(655.645 3.5332 0)
(657.765 0.478241 0)
(656.778 3.108 0)
(654.774 6.11787 0)
(653.309 7.97555 0)
(658.107 4.63238 0)
(658.561 3.45658 0)
(659.517 1.40427 0)
(660.079 -0.441445 0)
(663.762 -1.22436 0)
(663.279 -0.524104 0)
(663.302 0.750424 0)
(662.996 1.4428 0)
(661.677 2.89874 0)
(656.857 5.67025 0)
(651.051 10.2942 0)
(648.239 13.8877 0)
(646.27 16.9277 0)
(644.628 19.236 0)
(644.289 19.585 0)
(645.232 13.5203 0)
(646.993 7.08937 0)
(642.502 3.6603 0)
(641.362 3.60249 0)
(644.73 8.42032 0)
(645.754 14.8043 0)
(645.712 18.0139 0)
(647.377 17.4009 0)
(650.422 14.1673 0)
(653.989 9.81518 0)
(658.527 7.06077 0)
(656.005 8.70132 0)
(652.241 11.154 0)
(649.394 12.4429 0)
(645.805 12.0612 0)
(642.313 10.5056 0)
(639.431 5.24102 0)
(638.909 -1.19828 0)
(636.887 -0.0388119 0)
(639.506 4.58056 0)
(634.874 8.9302 0)
(624.625 9.21088 0)
(609.075 20.8911 0)
(584.249 50.3851 0)
(553.269 72.6325 0)
(516.268 95.0448 0)
(472.342 114.276 0)
(491.406 110.808 0)
(540.302 79.8131 0)
(573.916 53.0029 0)
(598.577 30.8801 0)
(615.85 5.09781 0)
(629.064 -1.91059 0)
(633.636 -2.23749 0)
(641.172 -8.79625 0)
(647.838 -15.8949 0)
(642.199 -18.9313 0)
(637.717 -2.09651 0)
(621.945 21.0515 0)
(588.445 53.7825 0)
(528.48 99.3519 0)
(454.068 127.935 0)
(439.767 125.481 0)
(432.155 122.345 0)
(399.809 122.874 0)
(377.77 118.496 0)
(364.784 113.007 0)
(354.607 109.343 0)
(346.232 105.025 0)
(339.22 101.17 0)
(332.288 97.6372 0)
(328.603 100.073 0)
(335.768 103.591 0)
(342.694 107.758 0)
(351.273 112.241 0)
(361.406 116.051 0)
(374.398 122.292 0)
(398.52 127.545 0)
(394.342 131.539 0)
(370.088 125.932 0)
(357.827 118.311 0)
(355.138 120.518 0)
(365.109 126.066 0)
(345.695 116.985 0)
(347.899 114.641 0)
(339.403 110.188 0)
(332.57 105.892 0)
(325.344 102.508 0)
(322.686 105.251 0)
(330.424 108.468 0)
(337.047 113.653 0)
(334.772 114.839 0)
(328.054 110.711 0)
(320.672 108.688 0)
(319.364 110.332 0)
(314.014 106.47 0)
(314.515 103.599 0)
(316.826 100.79 0)
(319.509 98.2188 0)
(322.567 95.9385 0)
(326.208 93.7999 0)
(319.772 90.4954 0)
(313.965 86.8609 0)
(310.062 88.8964 0)
(316 92.6298 0)
(313.033 95.0059 0)
(307.039 91.2812 0)
(304.336 94.0358 0)
(310.446 97.6939 0)
(307.817 100.545 0)
(301.321 96.8354 0)
(299.854 100.849 0)
(307.118 103.801 0)
(352.121 56.6715 0)
(366.17 58.2593 0)
(381.273 60.1954 0)
(400.578 62.2457 0)
(421.911 61.8446 0)
(444.152 61.8053 0)
(447.292 58.3401 0)
(473.66 61.7259 0)
(476.694 53.0068 0)
(431.017 16.1668 0)
(455.958 -5.28408 0)
(482.193 -12.2022 0)
(507.706 -13.0474 0)
(529.34 -13.0116 0)
(546.036 -12.2693 0)
(558.224 -9.36481 0)
(565.771 -6.79408 0)
(572.814 -2.79191 0)
(570.924 2.07247 0)
(568.05 6.64363 0)
(558.41 13.2804 0)
(541.173 19.3914 0)
(522.76 15.1878 0)
(498.574 4.21942 0)
(497.672 -1.63665 0)
(502.594 -4.83519 0)
(511.019 -6.20037 0)
(521.1 -6.53701 0)
(530.675 -6.34382 0)
(539.651 -6.48182 0)
(547.485 -6.04592 0)
(553.495 -7.13288 0)
(553.031 -11.0558 0)
(548.755 -10.7712 0)
(540.666 -11.2103 0)
(532.153 -10.7989 0)
(523.179 -10.8949 0)
(514.483 -9.99953 0)
(507.949 -7.58536 0)
(504.776 -0.803376 0)
(511.216 10.2283 0)
(527.024 23.5262 0)
(539.99 29.6278 0)
(550.092 21.988 0)
(562.339 10.5339 0)
(566.139 2.78711 0)
(568.42 -5.15165 0)
(562.07 -10.9649 0)
(555.351 -15.4252 0)
(544.478 -20.4559 0)
(531.157 -21.876 0)
(512.661 -20.7565 0)
(492.454 -15.6249 0)
(477.308 -3.50482 0)
(472.419 22.4347 0)
(493.486 53.0915 0)
(477.08 56.3837 0)
(473.257 61.0169 0)
(448.928 61.3324 0)
(425.258 65.3762 0)
(403.818 65.3531 0)
(383.593 64.7758 0)
)
;

boundaryField
{
    bottom
    {
        type            symmetryPlane;
    }
    inlet1
    {
        type            fixedValue;
        value           nonuniform List<vector> 0();
    }
    outlet1
    {
        type            zeroGradient;
    }
    top
    {
        type            zeroGradient;
    }
    wall1
    {
        type            slip;
    }
    bottomEmptyFaces
    {
        type            empty;
    }
    topEmptyFaces
    {
        type            empty;
    }
    procBoundary7to3
    {
        type            processor;
        value           nonuniform List<vector> 
34
(
(554.279 -6.45386 0)
(353.328 61.2987 0)
(367.596 62.5934 0)
(553.75 -13.9453 0)
(548.863 -15.8009 0)
(541.46 -16.2801 0)
(533.233 -15.8041 0)
(525.139 -15.6638 0)
(518.502 -13.9353 0)
(515.452 -8.97354 0)
(516.065 2.04802 0)
(526.607 17.7726 0)
(535.422 29.511 0)
(540.484 33.6476 0)
(542.77 29.2642 0)
(552.633 17.804 0)
(559.589 5.14975 0)
(562.153 -5.39192 0)
(558.801 -14.6952 0)
(552.21 -21.0126 0)
(542.584 -27.8918 0)
(532.451 -31.6471 0)
(519.83 -31.1717 0)
(508.422 -22.6105 0)
(501.473 -0.398267 0)
(507.548 29.6537 0)
(503.075 51.496 0)
(503.075 51.496 0)
(486.282 51.5628 0)
(456.964 60.7897 0)
(431.454 66.9692 0)
(407.52 70.2493 0)
(385.621 70.1909 0)
(367.596 62.5934 0)
)
;
    }
    procBoundary7to6
    {
        type            processor;
        value           nonuniform List<vector> 
13
(
(314.71 79.3262 0)
(299.615 104.635 0)
(299.383 103.117 0)
(342.513 49.9982 0)
(313.058 82.3844 0)
(308.279 83.56 0)
(304.255 85.5353 0)
(301.225 87.8377 0)
(298.666 90.4199 0)
(295.372 92.8918 0)
(293.392 95.9555 0)
(299.383 103.117 0)
(340.294 53.996 0)
)
;
    }
}


// ************************************************************************* //
