/*--------------------------------*- C++ -*----------------------------------*\
| =========                 |                                                 |
| \\      /  F ield         | OpenFOAM: The Open Source CFD Toolbox           |
|  \\    /   O peration     | Version:  2306                                  |
|   \\  /    A nd           | Website:  www.openfoam.com                      |
|    \\/     M anipulation  |                                                 |
\*---------------------------------------------------------------------------*/
FoamFile
{
    version     2.0;
    format      ascii;
    arch        "LSB;label=32;scalar=64";
    class       volScalarField;
    location    "0.01";
    object      p;
}
// * * * * * * * * * * * * * * * * * * * * * * * * * * * * * * * * * * * * * //

dimensions      [1 -1 -2 0 0 0 0];

internalField   nonuniform List<scalar> 
311
(
471818
465372
458654
451834
444159
435863
425671
413270
397632
376123
350097
320621
289466
258061
228702
204604
183480
164706
153403
145638
140143
137570
136802
136905
137426
137823
137664
136962
135620
133919
132344
129932
128337
127886
127612
127531
127393
127023
126847
126724
127117
128385
130279
132491
135778
139685
144465
148955
151720
152442
149610
143680
137334
130505
125922
140350
183369
294610
387009
411224
423672
433937
442871
451568
457964
465240
471892
477229
482585
487829
493554
440539
425062
408539
388550
367293
354867
330702
303665
316477
393097
348665
304917
272697
249313
231249
218729
211296
204416
204876
207456
216052
237049
265092
288702
286964
279533
268769
257377
247573
238548
231309
224266
217615
218567
221260
474853
468417
461673
454957
447242
439133
429026
416857
401493
379143
349960
314980
277855
242200
210102
185848
166221
150768
143542
139161
136402
135934
136139
136547
137260
137154
136416
134969
133046
131357
130022
128891
129619
130529
132245
129710
128572
128317
128014
127561
127709
127770
128386
129652
131255
134013
135708
136940
137479
137857
137334
137235
139115
142056
141612
141084
139839
137807
135388
132980
131032
133549
136582
139852
143031
145628
147093
147947
143856
142375
147020
156879
173075
192105
223347
260891
302883
282882
235526
197954
172531
158704
148942
145718
147760
147037
151592
160675
174950
205598
248953
322256
337610
345575
380521
404643
419973
431913
442043
450022
457768
461160
453354
445406
435097
423419
408251
382646
386350
411122
427075
430972
418851
441673
438180
448941
456623
464700
468278
460168
451596
455933
463566
470915
474556
480471
477862
474936
471476
467892
464462
471192
477693
481186
474579
478030
484738
488077
481295
484111
491210
493245
486611
442684
427250
410344
389350
363305
341105
335370
306894
302554
346641
326190
297842
271104
249123
232077
220494
212768
206879
207433
210635
220460
238865
260811
281418
283902
277852
268356
257706
247966
238916
231130
224509
225147
230935
239102
248221
257757
267481
275424
278555
271477
253871
239994
227732
216290
211432
210596
215872
223303
233749
248587
268587
291877
310655
309616
289406
307459
309011
338881
365120
388558
410791
)
;

boundaryField
{
    bottom
    {
        type            symmetryPlane;
    }
    inlet1
    {
        type            fixedValue;
        value           nonuniform List<scalar> 0();
    }
    outlet1
    {
        type            zeroGradient;
    }
    top
    {
        type            zeroGradient;
    }
    wall1
    {
        type            zeroGradient;
    }
    bottomEmptyFaces
    {
        type            empty;
    }
    topEmptyFaces
    {
        type            empty;
    }
    procBoundary7to3
    {
        type            processor;
        value           nonuniform List<scalar> 
34
(
226444
444110
428336
226474
231603
239332
248342
257427
265561
270063
266947
256287
245995
241628
237173
227020
220042
217860
221051
228184
237256
248975
264533
280750
284424
277057
278966
278966
302874
332506
361337
387096
411138
428336
)
;
    }
    procBoundary7to6
    {
        type            processor;
        value           nonuniform List<scalar> 
13
(
478201
498385
496142
452382
481243
484111
487610
491080
494247
497068
499260
496142
454733
)
;
    }
}


// ************************************************************************* //
