/*--------------------------------*- C++ -*----------------------------------*\
| =========                 |                                                 |
| \\      /  F ield         | OpenFOAM: The Open Source CFD Toolbox           |
|  \\    /   O peration     | Version:  2306                                  |
|   \\  /    A nd           | Website:  www.openfoam.com                      |
|    \\/     M anipulation  |                                                 |
\*---------------------------------------------------------------------------*/
FoamFile
{
    version     2.0;
    format      ascii;
    arch        "LSB;label=32;scalar=64";
    class       volScalarField;
    location    "0.01";
    object      rho;
}
// * * * * * * * * * * * * * * * * * * * * * * * * * * * * * * * * * * * * * //

dimensions      [1 -3 0 0 0 0 0];

internalField   nonuniform List<scalar> 
311
(
3.12414
3.09406
3.0626
3.03053
2.99422
2.95473
2.90578
2.84564
2.76884
2.66144
2.52903
2.37561
2.20876
2.035
1.86662
1.72331
1.59396
1.47562
1.40188
1.35044
1.31411
1.29721
1.29227
1.29301
1.29656
1.29925
1.29818
1.2935
1.28456
1.27322
1.2627
1.24633
1.23464
1.22938
1.22434
1.22048
1.21787
1.21501
1.21362
1.21267
1.2152
1.22378
1.23638
1.25089
1.27252
1.29819
1.32949
1.35856
1.37614
1.3805
1.36055
1.32033
1.27696
1.23154
1.20195
1.30905
1.59249
2.24356
2.72374
2.84408
2.90543
2.95544
2.99873
3.04074
3.07155
3.10624
3.13773
3.16309
3.18841
3.2131
3.23983
2.99134
2.91586
2.83452
2.73506
2.62802
2.56396
2.43826
2.29465
2.3614
2.7495
2.52358
2.2933
2.1178
1.98672
1.88294
1.80954
1.7655
1.72422
1.72704
1.74271
1.79419
1.91694
2.07627
2.20631
2.19687
2.15617
2.09667
2.03299
1.9775
1.92584
1.88395
1.84283
1.80371
1.80991
1.82727
3.14016
3.11023
3.07875
3.04729
3.01091
2.97244
2.92403
2.86514
2.78987
2.6785
2.53011
2.34727
2.14658
1.94644
1.75857
1.61083
1.48759
1.38752
1.33878
1.30885
1.29022
1.2867
1.28812
1.29093
1.29553
1.29472
1.28966
1.27989
1.26695
1.25556
1.24638
1.23655
1.24174
1.2482
1.26006
1.23915
1.23116
1.2292
1.22711
1.2205
1.22139
1.22161
1.22578
1.23448
1.24986
1.27217
1.28377
1.29237
1.29641
1.29933
1.2962
1.29577
1.30908
1.32527
1.32155
1.31745
1.30857
1.29453
1.27809
1.2617
1.24379
1.26063
1.2808
1.30242
1.32369
1.34113
1.35092
1.35652
1.3372
1.33102
1.36229
1.42831
1.53196
1.65061
1.83838
2.05383
2.28477
2.17708
1.90879
1.68517
1.52621
1.4369
1.37201
1.3497
1.35537
1.35007
1.38173
1.44265
1.5367
1.72864
1.98567
2.39095
2.47028
2.50986
2.68791
2.80795
2.88301
2.94073
2.98922
3.02702
3.06348
3.0821
3.04535
3.00767
2.95829
2.90184
2.82755
2.70035
2.72
2.84302
2.92099
2.94074
2.88154
2.99257
2.97472
3.02629
3.06279
3.10088
3.11925
3.08088
3.04019
3.06149
3.09778
3.13266
3.15027
3.17815
3.16529
3.1505
3.13259
3.11356
3.09477
3.12611
3.15626
3.17522
3.14464
3.16306
3.19411
3.21165
3.18016
3.19457
3.22771
3.23807
3.20695
3.00276
2.92788
2.84486
2.74028
2.60867
2.49438
2.46324
2.31308
2.28791
2.51757
2.40992
2.25786
2.11084
1.98716
1.88887
1.8209
1.77506
1.73979
1.74314
1.76243
1.8209
1.9283
2.05331
2.16753
2.18115
2.14786
2.09522
2.03557
1.9804
1.92852
1.88358
1.84494
1.85024
1.88416
1.93142
1.98382
2.03797
2.09274
2.13708
2.1545
2.11543
2.01665
1.93708
1.86555
1.79807
1.76908
1.76408
1.79569
1.83986
1.90123
1.98698
2.10002
2.22898
2.33076
2.3275
2.21843
2.31735
2.32478
2.4839
2.61952
2.7387
2.84979
)
;

boundaryField
{
    bottom
    {
        type            symmetryPlane;
    }
    inlet1
    {
        type            calculated;
        value           nonuniform List<scalar> 0();
    }
    outlet1
    {
        type            calculated;
        value           nonuniform List<scalar> 9(1.22048 1.22434 1.22938 1.23464 1.21787 1.24633 1.82727 1.80991 1.80371);
    }
    top
    {
        type            calculated;
        value           nonuniform List<scalar> 
32
(
3.12414
3.09406
3.0626
3.03053
2.99422
2.95473
2.90578
2.84564
2.76884
2.66144
2.52903
2.37561
2.20876
2.035
1.86662
1.72331
1.59396
1.47562
1.40188
1.35044
1.31411
1.29721
1.29227
1.29301
1.29656
1.29925
1.29818
1.2935
1.28456
1.27322
1.2627
1.24633
)
;
    }
    wall1
    {
        type            calculated;
        value           nonuniform List<scalar> 
68
(
3.23983
3.2131
3.18841
3.13773
3.16309
3.10624
3.04074
3.07155
2.99873
2.95544
2.84408
2.90543
2.72374
2.24356
1.59249
1.30905
1.20195
1.23154
1.27696
1.32033
1.36055
1.3805
1.37614
1.35856
1.32949
1.29819
1.27252
1.25089
1.23638
1.22378
1.2152
1.21267
1.21362
1.21501
1.21787
2.99134
2.91586
2.83452
2.73506
2.62802
2.56396
2.43826
2.29465
2.3614
2.7495
2.52358
2.2933
2.1178
1.98672
1.88294
1.80954
1.7655
1.72422
1.72704
1.74271
1.79419
1.91694
2.07627
2.20631
2.19687
2.15617
2.09667
2.03299
1.9775
1.92584
1.88395
1.84283
1.80371
)
;
    }
    bottomEmptyFaces
    {
        type            empty;
    }
    topEmptyFaces
    {
        type            empty;
    }
    procBoundary7to3
    {
        type            processor;
        value           nonuniform List<scalar> 
34
(
1.85991
3.01192
2.93568
1.86028
1.89047
1.93554
1.98734
2.03919
2.08535
2.11076
2.09363
2.03365
1.97494
1.94963
1.92356
1.86429
1.82311
1.81018
1.82931
1.87153
1.92458
1.99208
2.0803
2.171
2.19149
2.15146
2.16257
2.16257
2.29465
2.45267
2.60258
2.73386
2.85365
2.93568
)
;
    }
    procBoundary7to6
    {
        type            processor;
        value           nonuniform List<scalar> 
13
(
3.15382
3.26245
3.25187
3.04847
3.16978
3.18593
3.20484
3.22328
3.24008
3.25484
3.266
3.25187
3.06056
)
;
    }
}


// ************************************************************************* //
