/*--------------------------------*- C++ -*----------------------------------*\
| =========                 |                                                 |
| \\      /  F ield         | OpenFOAM: The Open Source CFD Toolbox           |
|  \\    /   O peration     | Version:  2306                                  |
|   \\  /    A nd           | Website:  www.openfoam.com                      |
|    \\/     M anipulation  |                                                 |
\*---------------------------------------------------------------------------*/
FoamFile
{
    version     2.0;
    format      ascii;
    arch        "LSB;label=32;scalar=64";
    class       volScalarField;
    location    "0.01";
    object      T;
}
// * * * * * * * * * * * * * * * * * * * * * * * * * * * * * * * * * * * * * //

dimensions      [0 0 0 1 0 0 0];

internalField   nonuniform List<scalar> 
311
(
526.028
523.884
521.625
519.307
516.676
513.802
510.24
505.847
500.203
492.24
482.167
470.09
456.472
441.695
426.754
413.537
400.937
388.775
381.141
375.631
371.453
369.384
368.724
368.794
369.182
369.484
369.36
368.806
367.735
366.357
365.063
363.117
362.057
362.327
363.039
363.956
364.34
364.137
364.05
363.983
364.351
365.405
367.019
368.919
371.645
374.779
378.479
381.892
384.011
384.62
383.009
379.033
374.598
369.097
364.907
373.438
401.064
457.375
494.903
503.616
507.907
511.41
514.403
517.259
519.323
521.683
523.831
525.507
527.187
528.819
530.611
512.959
507.749
502.017
494.815
486.797
482.079
472.412
460.937
466.806
497.978
481.233
463.112
448.496
437.091
427.767
421.02
416.858
412.939
413.194
414.633
419.425
430.72
444.71
455.771
454.975
451.558
446.491
440.96
436.065
431.438
427.648
423.879
420.23
420.622
421.76
526.71
524.57
522.305
520.021
517.379
514.574
511.053
506.762
501.254
493.031
481.773
467.395
450.854
433.408
416.134
401.859
389.195
378.472
373.452
370.334
368.232
367.971
368.121
368.42
369.03
368.974
368.428
367.302
365.768
364.401
363.354
363.056
363.581
364.238
365.554
364.598
363.745
363.6
363.36
364.038
364.193
364.299
364.811
365.813
365.778
366.916
368.198
369.067
369.369
369.552
369.037
368.894
370.144
373.351
373.232
373
372.218
370.786
368.963
367.109
366.94
368.992
371.429
374.009
376.363
378.215
379.249
379.878
374.709
372.573
375.898
382.565
393.505
405.376
423.164
442.444
461.738
452.579
429.78
409.151
393.745
384.702
378.115
376.046
379.721
379.344
382.137
387.929
396.542
414.266
436.691
469.456
476.029
479.575
493.092
501.934
507.387
511.569
515.076
517.824
520.468
521.156
518.518
515.81
512.283
508.23
502.898
493.563
494.739
503.68
509.259
510.455
506.288
514.069
513.063
516.705
519.285
521.977
522.898
520.242
517.383
518.719
521.225
523.592
524.691
526.572
525.839
525.073
524.228
523.423
522.739
524.998
527.156
527.84
525.656
526.395
528.594
529.327
527.14
527.834
530.074
530.568
528.51
513.495
508.268
502.401
494.89
485.082
476.309
474.223
462.127
460.604
479.582
471.447
459.465
447.346
436.662
427.951
421.771
417.502
414.176
414.485
416.276
421.703
431.461
442.421
452.222
453.363
450.579
446.114
440.964
436.117
431.506
427.403
423.855
423.84
426.909
431.192
435.813
440.531
445.186
448.896
450.327
446.989
438.476
431.536
425.187
418.981
416.282
415.811
418.725
422.739
428.233
435.762
445.477
456.096
464.241
463.339
454.387
462.125
462.972
475.201
485.488
494.169
502.079
)
;

boundaryField
{
    bottom
    {
        type            symmetryPlane;
    }
    inlet1
    {
        type            fixedValue;
        value           nonuniform List<scalar> 0();
    }
    outlet1
    {
        type            zeroGradient;
    }
    top
    {
        type            zeroGradient;
    }
    wall1
    {
        type            zeroGradient;
    }
    bottomEmptyFaces
    {
        type            empty;
    }
    topEmptyFaces
    {
        type            empty;
    }
    procBoundary7to3
    {
        type            processor;
        value           nonuniform List<scalar> 
34
(
424.065
513.584
508.207
424.036
426.715
430.688
435.254
439.703
443.556
445.647
444.108
438.95
433.846
431.676
429.462
424.146
420.395
419.198
420.892
424.672
429.383
435.323
442.914
450.427
452.055
448.539
449.31
449.31
459.739
472.198
483.584
493.181
501.824
508.207
)
;
    }
    procBoundary7to6
    {
        type            processor;
        value           nonuniform List<scalar> 
13
(
528.126
532.09
531.419
516.877
528.81
529.264
529.945
530.661
531.315
531.925
532.444
531.419
517.51
)
;
    }
}


// ************************************************************************* //
