/*--------------------------------*- C++ -*----------------------------------*\
| =========                 |                                                 |
| \\      /  F ield         | OpenFOAM: The Open Source CFD Toolbox           |
|  \\    /   O peration     | Version:  2306                                  |
|   \\  /    A nd           | Website:  www.openfoam.com                      |
|    \\/     M anipulation  |                                                 |
\*---------------------------------------------------------------------------*/
FoamFile
{
    version     2.0;
    format      ascii;
    arch        "LSB;label=32;scalar=64";
    class       volVectorField;
    location    "0.01";
    object      U;
}
// * * * * * * * * * * * * * * * * * * * * * * * * * * * * * * * * * * * * * //

dimensions      [0 1 -1 0 0 0 0];

internalField   nonuniform List<vector> 
311
(
(320.015 82.3064 0)
(325.33 85.824 0)
(331.418 89.1598 0)
(337.984 92.665 0)
(345.394 96.2575 0)
(353.574 99.6377 0)
(362.739 103.735 0)
(373.677 107.136 0)
(387.17 111.703 0)
(406.3 115.568 0)
(429.958 117.843 0)
(456.701 117.721 0)
(487.448 113.672 0)
(518.734 106.871 0)
(549.05 95.9659 0)
(578.227 78.0495 0)
(600.695 67.8329 0)
(619.744 56.4201 0)
(635.093 34.1414 0)
(643.882 22.6627 0)
(648.205 23.703 0)
(648.283 21.8513 0)
(648.147 17.5454 0)
(648.486 14.6437 0)
(648.466 14.4095 0)
(647.988 15.5839 0)
(647.925 16.4834 0)
(648.758 16.1308 0)
(650.433 14.4784 0)
(652.884 10.6918 0)
(654.498 8.58805 0)
(656.828 6.25265 0)
(657.377 2.7596 0)
(659.352 0.843868 0)
(661.483 0.0943685 0)
(664.243 -0.479785 0)
(665.435 0.0351636 0)
(665.794 0.04809 0)
(665.25 0.406439 0)
(664.88 1.20257 0)
(663.909 2.36611 0)
(663.2 2.99126 0)
(660.985 2.52897 0)
(659.513 3.92423 0)
(657.297 3.84645 0)
(653.557 4.19355 0)
(648.089 2.959 0)
(642.415 1.17583 0)
(639.102 -1.57326 0)
(637.95 -3.91953 0)
(640.403 -6.99223 0)
(645.618 -4.44514 0)
(648.074 0.681295 0)
(647.828 24.6316 0)
(646.221 59.6106 0)
(626.349 106.427 0)
(566.6 140.298 0)
(468.247 144.66 0)
(393.85 137.168 0)
(372.67 128.312 0)
(362.819 127.492 0)
(354.557 122.943 0)
(346.805 120.9 0)
(340.909 117.337 0)
(334.867 117.695 0)
(328.971 114.409 0)
(323.727 111.628 0)
(319.035 111.763 0)
(313.901 108.627 0)
(307.982 107.265 0)
(303.625 104.243 0)
(354.417 51.9437 0)
(367.786 53.9281 0)
(382.087 56.2743 0)
(398.937 59.8391 0)
(418.167 64.3761 0)
(429.642 62.5013 0)
(449.885 65.0093 0)
(473.918 66.4011 0)
(458.396 59.6729 0)
(401.595 36.9711 0)
(446.078 13.9938 0)
(481.676 -0.676295 0)
(510.071 -3.91114 0)
(532.37 -4.68871 0)
(550.265 -4.81399 0)
(562.769 -4.62622 0)
(569.808 -2.76871 0)
(576.72 -3.73691 0)
(574.719 -1.30643 0)
(571.494 0.615022 0)
(561.812 2.76137 0)
(539.74 5.72867 0)
(513.572 6.82738 0)
(492.449 5.14028 0)
(494.86 1.96267 0)
(501.408 -0.372679 0)
(511.019 -1.46621 0)
(521.355 -2.17237 0)
(530.558 -2.25285 0)
(539.261 -2.37597 0)
(546.744 -1.9477 0)
(553.969 -2.43419 0)
(560.875 -1.90567 0)
(560.013 -4.67207 0)
(558.044 -7.18798 0)
(318.375 85.1378 0)
(323.635 88.7075 0)
(329.708 92.007 0)
(336.115 95.6732 0)
(343.506 99.2177 0)
(351.443 102.847 0)
(360.479 107.075 0)
(371.199 110.744 0)
(384.601 115.878 0)
(404.906 119.349 0)
(430.524 120.206 0)
(462.909 115.633 0)
(498.088 104.767 0)
(533.546 89.1949 0)
(564.628 70.6587 0)
(589.427 48.9237 0)
(608.773 38.2841 0)
(621.481 31.9586 0)
(633.5 15.3855 0)
(641.001 11.7982 0)
(645.505 15.2109 0)
(645.22 17.2224 0)
(645.097 16.6149 0)
(645.649 15.3589 0)
(646.522 15.0392 0)
(647.157 14.9597 0)
(648.3 14.4787 0)
(650.098 12.7419 0)
(652.372 9.63262 0)
(654.674 5.25169 0)
(655.792 3.5273 0)
(657.99 0.669143 0)
(657.143 2.25904 0)
(655.245 6.01593 0)
(653.402 8.64407 0)
(657.984 5.06031 0)
(658.967 3.05355 0)
(659.974 0.535997 0)
(660.525 -0.277282 0)
(664.323 -1.03167 0)
(663.79 -1.0134 0)
(663.32 0.190952 0)
(662.676 1.58289 0)
(661.737 2.59659 0)
(656.731 6.2075 0)
(651.247 11.0261 0)
(648.56 13.8053 0)
(646.392 15.8812 0)
(644.6 17.7644 0)
(643.581 18.7156 0)
(643.84 15.1737 0)
(646.647 8.21525 0)
(644.621 3.51326 0)
(642.934 2.9615 0)
(645.277 8.56041 0)
(645.153 15.5253 0)
(644.912 17.8793 0)
(647.287 16.4106 0)
(650.916 12.815 0)
(654.336 9.19323 0)
(659.257 5.65174 0)
(655.465 8.95385 0)
(652.264 10.8573 0)
(649.381 12.5994 0)
(646.388 12.3708 0)
(643.242 10.0478 0)
(640.468 4.88866 0)
(638.937 -1.36157 0)
(637.64 -0.611675 0)
(640.394 2.82621 0)
(634.298 7.89079 0)
(624.128 13.9354 0)
(608.364 20.7085 0)
(585.355 48.1841 0)
(552.089 74.4837 0)
(515.805 95.1441 0)
(472.826 113.946 0)
(491.7 110.452 0)
(540.088 79.4294 0)
(572.473 55.3153 0)
(598.779 27.4552 0)
(615.076 5.15575 0)
(628.436 1.47104 0)
(632.871 -1.88935 0)
(640.482 -7.93485 0)
(647.486 -13.888 0)
(642.245 -19.0268 0)
(636.123 -6.21677 0)
(620.427 22.9347 0)
(589.102 53.8914 0)
(528.86 99.0372 0)
(453.77 127.794 0)
(439.836 125.007 0)
(432.515 121.89 0)
(400.415 122.122 0)
(378.51 117.887 0)
(365.553 112.227 0)
(355.13 108.423 0)
(346.273 104.152 0)
(338.647 100.384 0)
(331.207 96.9721 0)
(327.54 99.754 0)
(335.192 103.015 0)
(342.667 107 0)
(351.617 111.353 0)
(361.913 115.264 0)
(374.775 121.583 0)
(398.785 126.784 0)
(394.403 130.901 0)
(370.477 125.425 0)
(358.241 117.88 0)
(355.722 120.463 0)
(365.43 125.835 0)
(346.272 116.916 0)
(348.307 114.171 0)
(339.647 109.956 0)
(332.32 105.893 0)
(324.676 102.788 0)
(322.465 105.866 0)
(330.586 108.748 0)
(337.47 113.834 0)
(335.45 115.144 0)
(328.352 111.185 0)
(320.601 109.298 0)
(319.433 110.8 0)
(313.7 106.8 0)
(314.052 104.263 0)
(316.094 101.536 0)
(318.499 98.6902 0)
(321.252 95.8103 0)
(324.961 93.2098 0)
(318.823 90.0099 0)
(313.589 86.4122 0)
(309.569 89.0261 0)
(314.947 92.7 0)
(312.138 95.6993 0)
(306.579 91.9853 0)
(303.768 94.9835 0)
(309.645 98.6516 0)
(307.193 101.407 0)
(300.753 97.6626 0)
(299.194 101.301 0)
(306.566 104.307 0)
(353.169 57.2042 0)
(367.616 59.1079 0)
(382.75 61.7254 0)
(402.225 63.1489 0)
(422.479 63.0706 0)
(443.818 63.5869 0)
(447.404 59.4773 0)
(472.639 62.7608 0)
(475.492 53.4611 0)
(429.541 16.2465 0)
(454.651 -5.26982 0)
(480.738 -13.1682 0)
(506.36 -14.1577 0)
(528.395 -14.0307 0)
(545.555 -13.3465 0)
(558.923 -9.92833 0)
(565.875 -7.84595 0)
(574.219 -3.66296 0)
(571.897 1.14825 0)
(568.607 5.95394 0)
(558.751 13.1126 0)
(541.523 20.1192 0)
(523.066 16.032 0)
(498.816 5.2532 0)
(497.695 -0.528529 0)
(502.59 -3.87387 0)
(510.89 -5.63096 0)
(520.743 -6.40589 0)
(530.102 -6.36815 0)
(539.034 -6.52822 0)
(546.862 -6.33134 0)
(552.624 -7.54458 0)
(552.542 -11.8327 0)
(548.338 -11.3583 0)
(540.225 -11.2834 0)
(531.732 -10.7199 0)
(523.011 -10.5268 0)
(514.42 -8.99353 0)
(507.859 -5.9826 0)
(504.641 0.894134 0)
(511.469 11.6137 0)
(527.391 24.7641 0)
(540.665 30.5916 0)
(550.158 22.1978 0)
(562.355 9.94862 0)
(566.398 1.04747 0)
(568.891 -6.67471 0)
(562.511 -12.4841 0)
(555.747 -16.7451 0)
(544.708 -21.5651 0)
(530.664 -23.1872 0)
(511.825 -22.2353 0)
(491.611 -16.8008 0)
(476.028 -3.39893 0)
(471.048 22.9362 0)
(492.599 54.4637 0)
(477.305 58.5568 0)
(472.844 62.8159 0)
(449.292 63.2474 0)
(425.871 66.9337 0)
(404.863 67.1801 0)
(384.652 66.2222 0)
)
;

boundaryField
{
    bottom
    {
        type            symmetryPlane;
    }
    inlet1
    {
        type            fixedValue;
        value           nonuniform List<vector> 0();
    }
    outlet1
    {
        type            zeroGradient;
    }
    top
    {
        type            zeroGradient;
    }
    wall1
    {
        type            slip;
    }
    bottomEmptyFaces
    {
        type            empty;
    }
    topEmptyFaces
    {
        type            empty;
    }
    procBoundary7to3
    {
        type            processor;
        value           nonuniform List<vector> 
34
(
(553.827 -7.98065 0)
(353.935 61.8149 0)
(368.554 63.6056 0)
(553.386 -15.0494 0)
(549.088 -16.4735 0)
(542.057 -16.4462 0)
(533.987 -15.7175 0)
(525.954 -14.9766 0)
(519.068 -12.6576 0)
(515.374 -6.86214 0)
(515.637 3.67849 0)
(526.277 19.1309 0)
(534.964 30.8844 0)
(540.105 35.096 0)
(542.289 29.9946 0)
(553.254 16.2278 0)
(558.949 3.86907 0)
(562.43 -7.57995 0)
(559.06 -16.564 0)
(552.694 -22.3855 0)
(542.989 -28.9997 0)
(532.662 -32.4895 0)
(519.63 -32.1745 0)
(508.198 -23.3097 0)
(500.539 0.013829 0)
(506.67 30.3766 0)
(502.557 53.1571 0)
(502.557 53.1571 0)
(486.344 53.6825 0)
(457.172 62.8199 0)
(431.971 68.4657 0)
(408.238 71.3451 0)
(386.3 70.8789 0)
(368.554 63.6056 0)
)
;
    }
    procBoundary7to6
    {
        type            processor;
        value           nonuniform List<vector> 
13
(
(314.992 78.9905 0)
(298.813 104.467 0)
(298.742 103.305 0)
(343.434 50.4358 0)
(313.371 81.8037 0)
(308.576 83.0936 0)
(304.452 85.6542 0)
(301.362 88.484 0)
(298.569 91.3117 0)
(295.134 93.6542 0)
(292.908 96.3372 0)
(298.742 103.305 0)
(340.866 54.1477 0)
)
;
    }
}


// ************************************************************************* //
