/*--------------------------------*- C++ -*----------------------------------*\
| =========                 |                                                 |
| \\      /  F ield         | OpenFOAM: The Open Source CFD Toolbox           |
|  \\    /   O peration     | Version:  2306                                  |
|   \\  /    A nd           | Website:  www.openfoam.com                      |
|    \\/     M anipulation  |                                                 |
\*---------------------------------------------------------------------------*/
FoamFile
{
    version     2.0;
    format      ascii;
    arch        "LSB;label=32;scalar=64";
    class       volScalarField;
    location    "0.02";
    object      p;
}
// * * * * * * * * * * * * * * * * * * * * * * * * * * * * * * * * * * * * * //

dimensions      [1 -1 -2 0 0 0 0];

internalField   nonuniform List<scalar> 
226
(
5.14064e+06
5.13373e+06
5.12265e+06
5.12947e+06
5.10389e+06
5.1586e+06
5.04669e+06
5.16802e+06
4.88777e+06
5.17704e+06
4.88447e+06
5.24566e+06
5.1012e+06
898222
554209
552728
552158
549129
546479
547089
548967
552671
556899
558845
559078
558554
556707
553904
552250
551529
549380
548711
549224
548581
548378
548345
549965
552140
556652
558687
559332
554941
553104
550022
547159
547538
549368
552704
556462
558294
558763
558476
556911
554437
553040
553760
554676
556775
558412
557857
556351
554844
554490
557136
556112
555439
555149
555550
556653
555204
554752
555187
555453
554326
553880
553952
554908
556391
558289
561155
561872
561970
561491
560811
559602
557425
555524
554328
555615
556873
558859
560278
558618
557358
559183
560118
561082
561666
561925
561902
561796
561414
560952
560525
560415
558563
556594
555003
553821
553682
554366
556077
557299
558346
558820
558068
556514
553379
550116
547842
547209
549773
548443
548624
550588
552773
554590
556354
557752
557160
556453
555261
556269
556646
556627
555452
556523
557264
557358
555439
553537
551592
549871
548833
550903
552586
554172
556575
555105
553070
550950
549532
549007
550159
552596
553891
551554
548694
548034
548382
549713
552408
554519
556422
557430
557690
557075
555771
554353
554433
556180
557727
558042
556877
555360
556686
557572
558147
558192
558339
558325
557964
556763
554992
555073
556650
557838
557693
556621
555194
555526
556910
557975
558629
558912
558946
558715
560645
560545
560041
559248
558196
556918
555356
553553
553863
553538
553462
553102
550234
550630
550751
550741
551376
961276
986175
997562
979498
974620
959910
962867
964959
972025
980082
987406
991562
)
;

boundaryField
{
    bottom
    {
        type            symmetryPlane;
    }
    inlet1
    {
        type            fixedValue;
        value           uniform 101325;
    }
    outlet1
    {
        type            zeroGradient;
    }
    top
    {
        type            zeroGradient;
    }
    wall1
    {
        type            zeroGradient;
    }
    bottomEmptyFaces
    {
        type            empty;
    }
    topEmptyFaces
    {
        type            empty;
    }
    procBoundary4to0
    {
        type            processor;
        value           nonuniform List<scalar> 
18
(
5.14897e+06
553580
561990
561923
561731
561494
561471
561825
562169
562067
561417
560355
558975
557389
555557
553566
551592
994157
)
;
    }
    procBoundary4to5
    {
        type            processor;
        value           nonuniform List<scalar> 
14
(
551659
552523
553470
554499
555893
557300
558790
559990
559990
561629
562011
561904
561761
561736
)
;
    }
}


// ************************************************************************* //
