/*--------------------------------*- C++ -*----------------------------------*\
| =========                 |                                                 |
| \\      /  F ield         | OpenFOAM: The Open Source CFD Toolbox           |
|  \\    /   O peration     | Version:  2306                                  |
|   \\  /    A nd           | Website:  www.openfoam.com                      |
|    \\/     M anipulation  |                                                 |
\*---------------------------------------------------------------------------*/
FoamFile
{
    version     2.0;
    format      ascii;
    arch        "LSB;label=32;scalar=64";
    class       volScalarField;
    location    "0.02";
    object      rho;
}
// * * * * * * * * * * * * * * * * * * * * * * * * * * * * * * * * * * * * * //

dimensions      [1 -3 0 0 0 0 0];

internalField   nonuniform List<scalar> 
226
(
21.1206
21.0906
21.0609
21.1242
21.0548
21.2709
20.8229
21.2287
19.9611
21.012
19.9515
21.6372
21.1535
5.18645
3.50506
3.4947
3.4919
3.47803
3.46487
3.46628
3.47322
3.48936
3.50848
3.51715
3.518
3.51546
3.50698
3.49433
3.48689
3.49778
3.48676
3.48428
3.48809
3.48571
3.48358
3.48008
3.47652
3.47166
3.48698
3.50952
3.52716
3.50135
3.49242
3.47865
3.46555
3.46671
3.47414
3.48887
3.50593
3.51423
3.5163
3.51496
3.50787
3.49675
3.49047
3.49434
3.49829
3.50753
3.51462
3.51312
3.50689
3.50048
3.49919
3.51905
3.51191
3.50594
3.50435
3.50587
3.51041
3.50739
3.50549
3.50755
3.51131
3.50615
3.50412
3.50628
3.51058
3.51743
3.5261
3.54025
3.54442
3.54586
3.54361
3.53963
3.53325
3.52344
3.51483
3.5094
3.51614
3.52185
3.5308
3.53806
3.53046
3.52467
3.53376
3.53818
3.54265
3.54544
3.54679
3.54796
3.54732
3.54537
3.54313
3.54104
3.54039
3.53077
3.52108
3.51329
3.50709
3.50522
3.50638
3.51101
3.51277
3.51488
3.51626
3.51265
3.50545
3.49112
3.47588
3.46493
3.46157
3.47278
3.46556
3.46712
3.4772
3.48807
3.49691
3.50516
3.51179
3.51174
3.50819
3.50241
3.51119
3.51305
3.51317
3.51131
3.51619
3.51962
3.52003
3.5072
3.49426
3.48498
3.47631
3.47039
3.48541
3.49359
3.50114
3.51641
3.50969
3.50045
3.49092
3.47857
3.46998
3.47238
3.48495
3.49033
3.47651
3.46731
3.4717
3.47984
3.48916
3.50067
3.51001
3.51847
3.52283
3.5238
3.52086
3.51493
3.50842
3.50989
3.51778
3.52483
3.52692
3.52164
3.51482
3.52139
3.52525
3.5277
3.52781
3.52831
3.52773
3.52632
3.52113
3.51319
3.51364
3.52077
3.52608
3.52545
3.52051
3.51402
3.51581
3.5222
3.52722
3.53036
3.53185
3.53214
3.53128
3.54123
3.54063
3.53821
3.53452
3.52958
3.52359
3.51642
3.50825
3.50823
3.50648
3.50641
3.50485
3.49267
3.49408
3.49373
3.49365
3.49798
5.45395
5.50233
5.53595
5.46164
5.4788
5.4286
5.44565
5.45514
5.48257
5.51182
5.54167
5.5616
)
;

boundaryField
{
    bottom
    {
        type            symmetryPlane;
    }
    inlet1
    {
        type            calculated;
        value           uniform 1.17641;
    }
    outlet1
    {
        type            calculated;
        value           nonuniform List<scalar> 0();
    }
    top
    {
        type            calculated;
        value           nonuniform List<scalar> 
17
(
5.18645
3.50506
3.4947
3.4919
3.47803
3.46487
3.46628
3.47322
3.48936
3.50848
3.51715
3.518
3.51546
3.50698
3.49433
3.48689
21.1535
)
;
    }
    wall1
    {
        type            calculated;
        value           nonuniform List<scalar> 0();
    }
    bottomEmptyFaces
    {
        type            empty;
    }
    topEmptyFaces
    {
        type            empty;
    }
    procBoundary4to0
    {
        type            processor;
        value           nonuniform List<scalar> 
18
(
21.1595
3.50921
3.55014
3.54962
3.5485
3.54717
3.54694
3.54836
3.54977
3.54922
3.54621
3.54132
3.53493
3.52765
3.51943
3.51053
3.50143
5.57555
)
;
    }
    procBoundary4to5
    {
        type            processor;
        value           nonuniform List<scalar> 
14
(
3.4842
3.48818
3.49317
3.49946
3.50829
3.51749
3.52665
3.53378
3.53378
3.54235
3.54508
3.54571
3.54621
3.5474
)
;
    }
}


// ************************************************************************* //
