/*--------------------------------*- C++ -*----------------------------------*\
| =========                 |                                                 |
| \\      /  F ield         | OpenFOAM: The Open Source CFD Toolbox           |
|  \\    /   O peration     | Version:  2306                                  |
|   \\  /    A nd           | Website:  www.openfoam.com                      |
|    \\/     M anipulation  |                                                 |
\*---------------------------------------------------------------------------*/
FoamFile
{
    version     2.0;
    format      ascii;
    arch        "LSB;label=32;scalar=64";
    class       volScalarField;
    location    "0.02";
    object      T;
}
// * * * * * * * * * * * * * * * * * * * * * * * * * * * * * * * * * * * * * //

dimensions      [0 0 0 1 0 0 0];

internalField   nonuniform List<scalar> 
226
(
847.764
847.831
847.192
845.778
844.332
844.715
844.167
847.939
852.884
858.178
852.719
844.427
839.953
603.222
550.734
550.891
550.764
549.927
549.351
549.742
550.527
551.676
552.868
553.432
553.53
553.41
552.913
552.121
551.647
549.212
548.801
548.523
548.436
548.168
548.301
548.818
551.003
553.957
556.03
554.479
552.342
552.047
551.625
550.723
549.927
550.124
550.782
551.787
552.835
553.346
553.485
553.411
552.976
552.27
551.869
551.975
552.264
552.895
553.402
553.087
552.574
552.087
551.937
551.442
551.547
551.818
551.78
551.939
552.32
551.357
551.207
551.315
550.987
550.679
550.554
550.288
550.561
550.959
551.479
552.094
552.15
552.02
551.9
551.853
551.657
551.04
550.507
550.172
550.392
550.743
551.306
551.572
551.122
550.782
551.164
551.395
551.647
551.788
551.832
551.627
551.624
551.552
551.446
551.351
551.343
551.019
550.588
550.231
550.03
550.186
550.683
551.655
552.589
553.295
553.547
553.371
552.964
552.105
551.256
550.712
550.609
551.404
551.216
551.15
551.52
551.983
552.397
552.849
553.193
552.613
552.472
552.197
551.817
551.898
551.861
550.987
551.283
551.479
551.508
551.621
551.765
551.292
550.943
550.841
550.536
550.924
551.314
551.299
550.897
550.326
549.713
550.245
551.081
551.854
552.3
552.742
552.597
551.19
549.831
548.893
548.755
549.632
550.264
550.826
551.141
551.246
551.098
550.737
550.349
550.198
550.694
551.121
551.105
550.78
550.346
550.63
550.903
551.087
551.115
551.182
551.259
551.123
550.747
550.235
550.246
550.691
551.035
550.991
550.704
550.307
550.354
550.725
550.993
551.148
551.195
551.183
551.089
551.439
551.435
551.315
551.11
550.843
550.517
550.091
549.582
549.894
549.844
549.781
549.667
548.724
548.898
549.073
549.075
549.028
613.905
624.269
627.641
624.661
619.604
615.895
615.859
616.123
617.528
619.344
620.611
620.989
)
;

boundaryField
{
    bottom
    {
        type            symmetryPlane;
    }
    inlet1
    {
        type            fixedValue;
        value           uniform 300;
    }
    outlet1
    {
        type            zeroGradient;
    }
    top
    {
        type            zeroGradient;
    }
    wall1
    {
        type            zeroGradient;
    }
    bottomEmptyFaces
    {
        type            empty;
    }
    topEmptyFaces
    {
        type            empty;
    }
    procBoundary4to0
    {
        type            processor;
        value           nonuniform List<scalar> 
18
(
847.577
549.458
551.374
551.391
551.376
551.349
551.364
551.489
551.607
551.593
551.424
551.141
550.777
550.347
549.819
549.239
548.702
621.056
)
;
    }
    procBoundary4to5
    {
        type            processor;
        value           nonuniform List<scalar> 
14
(
551.483
551.715
551.871
551.904
551.899
551.849
551.887
551.956
551.956
552.233
552.182
551.978
551.761
551.551
)
;
    }
}


// ************************************************************************* //
