/*--------------------------------*- C++ -*----------------------------------*\
| =========                 |                                                 |
| \\      /  F ield         | OpenFOAM: The Open Source CFD Toolbox           |
|  \\    /   O peration     | Version:  2306                                  |
|   \\  /    A nd           | Website:  www.openfoam.com                      |
|    \\/     M anipulation  |                                                 |
\*---------------------------------------------------------------------------*/
FoamFile
{
    version     2.0;
    format      ascii;
    arch        "LSB;label=32;scalar=64";
    class       volVectorField;
    location    "0.02";
    object      U;
}
// * * * * * * * * * * * * * * * * * * * * * * * * * * * * * * * * * * * * * //

dimensions      [0 1 -1 0 0 0 0];

internalField   nonuniform List<vector> 
226
(
(-529.458 8.52754 0)
(-529.251 8.98849 0)
(-528.912 8.9135 0)
(-530.051 10.0728 0)
(-529.636 10.9963 0)
(-533.544 15.8209 0)
(-526.665 18.6278 0)
(-532.143 24.223 0)
(-510.751 20.5588 0)
(-526.848 16.0009 0)
(-507.505 8.50804 0)
(-534.97 -0.65035 0)
(-528.843 11.0297 0)
(23.7026 14.8737 0)
(253.974 15.2063 0)
(258.724 21.0348 0)
(256.717 24.1959 0)
(253.144 25.2452 0)
(250.389 24.7027 0)
(249.55 24.1892 0)
(249.842 23.8456 0)
(251.349 23.5621 0)
(253.328 23.4999 0)
(254.147 23.5786 0)
(254.076 23.6289 0)
(253.741 23.6856 0)
(252.76 23.7431 0)
(251.402 23.7859 0)
(250.871 23.8041 0)
(247.395 6.42843 0)
(247.765 7.09748 0)
(247.929 9.25925 0)
(246.867 12.5799 0)
(244.613 14.7909 0)
(243.835 16.9713 0)
(245.706 18.5897 0)
(251.279 19.2788 0)
(259.458 19.7453 0)
(264.729 21.3368 0)
(264.21 20.5533 0)
(260.015 18.2243 0)
(262.248 21.4953 0)
(260.212 24.7838 0)
(256.054 25.8305 0)
(252.504 25.2277 0)
(251.128 24.5054 0)
(251.062 23.8985 0)
(252.03 23.2446 0)
(253.372 23.0652 0)
(253.898 23.3018 0)
(253.762 23.489 0)
(253.33 23.6875 0)
(252.365 23.982 0)
(251.108 24.2668 0)
(250.641 24.4244 0)
(249.422 24.7352 0)
(249.815 24.4781 0)
(251.089 23.9792 0)
(252.315 23.4238 0)
(249.707 22.9287 0)
(248.387 23.7791 0)
(247.29 24.3917 0)
(247.031 24.6234 0)
(239.435 24.0956 0)
(240.912 24.3795 0)
(243.76 24.522 0)
(243.747 24.2239 0)
(244.27 23.4823 0)
(245.396 22.3724 0)
(240.87 22.0438 0)
(240.373 23.2082 0)
(240.425 23.9072 0)
(238.486 23.7195 0)
(237.993 23.1709 0)
(237.979 22.3757 0)
(236.913 22.0912 0)
(237.158 22.7046 0)
(237.87 23.214 0)
(238.966 23.6608 0)
(240.32 23.9225 0)
(240.829 23.8359 0)
(241.203 23.9427 0)
(240.846 22.7372 0)
(240.136 22.9124 0)
(239.282 23.3001 0)
(238.09 22.7866 0)
(237.211 22.1895 0)
(236.881 21.6018 0)
(237.906 21.392 0)
(238.248 21.7976 0)
(239.12 22.278 0)
(240.249 21.7914 0)
(239.61 21.1992 0)
(239.365 20.8103 0)
(240.488 20.2053 0)
(240.546 20.7526 0)
(240.809 21.6769 0)
(241.069 22.8815 0)
(241.241 24.2599 0)
(240.94 24.5938 0)
(240.888 23.134 0)
(240.789 21.7624 0)
(240.755 20.629 0)
(240.968 19.7707 0)
(241.656 19.131 0)
(240.912 19.8105 0)
(239.594 20.5605 0)
(238.062 21.0901 0)
(237.092 21.0435 0)
(237.145 21.2396 0)
(238.454 21.2307 0)
(241.798 20.6494 0)
(246.421 21.2852 0)
(250.72 22.0317 0)
(253.122 22.8922 0)
(253.649 22.4921 0)
(253.691 22.2443 0)
(252.981 22.4887 0)
(252.713 23.0717 0)
(253.321 23.6122 0)
(255.102 24.3048 0)
(258.683 24.3992 0)
(257.541 22.5353 0)
(254.844 22.4561 0)
(253.525 21.9542 0)
(252.971 21.321 0)
(252.608 20.7577 0)
(252.111 20.8022 0)
(251.547 21.298 0)
(247.303 20.3921 0)
(248.043 19.8435 0)
(248.843 19.6179 0)
(244.28 18.4169 0)
(243.495 18.7039 0)
(242.663 19.4978 0)
(239.363 19.8747 0)
(240.402 18.7628 0)
(241.438 18.0349 0)
(242.362 17.7552 0)
(245.067 18.5791 0)
(249.673 19.638 0)
(250.53 19.919 0)
(251.58 20.3835 0)
(253.248 20.6964 0)
(247.498 19.8855 0)
(246.578 19.529 0)
(245.831 19.0348 0)
(243.033 17.8333 0)
(243.48 18.1144 0)
(243.906 18.4139 0)
(244.542 18.5921 0)
(248.651 20.0578 0)
(255.391 20.5777 0)
(261.144 22.1899 0)
(262.757 23.1185 0)
(265.147 21.1369 0)
(264.272 21.4869 0)
(258.314 20.0709 0)
(250.788 19.6859 0)
(246.016 18.6075 0)
(244.681 16.9388 0)
(243.506 16.968 0)
(242.987 17.1118 0)
(242.7 17.5149 0)
(242.302 17.8428 0)
(241.596 18.1114 0)
(240.611 18.5459 0)
(239.281 19.2352 0)
(237.949 20.2121 0)
(237.917 20.3321 0)
(239.451 19.6566 0)
(240.871 19.0755 0)
(241.753 19.4075 0)
(240.326 20.071 0)
(238.801 20.6242 0)
(240.413 20.248 0)
(241.77 19.7978 0)
(243.045 19.0568 0)
(244.137 18.1744 0)
(242.82 18.6476 0)
(241.83 18.5053 0)
(242.565 17.9275 0)
(243.023 17.1687 0)
(243.531 16.3265 0)
(245.149 15.8312 0)
(244.358 16.8372 0)
(243.696 17.8487 0)
(245.083 17.1819 0)
(245.885 15.9093 0)
(246.795 14.8254 0)
(247.814 14.2355 0)
(247.024 15.4017 0)
(246.205 16.7988 0)
(245.252 17.8588 0)
(244.212 18.5919 0)
(243.064 19.1697 0)
(241.877 19.5347 0)
(242.708 18.6527 0)
(243.783 18.1689 0)
(244.715 17.6104 0)
(245.561 16.889 0)
(246.344 15.8002 0)
(247.02 14.4399 0)
(247.653 13.3641 0)
(247.892 12.6558 0)
(248.225 13.5058 0)
(247.498 14.2679 0)
(246.011 15.2502 0)
(244.204 15.852 0)
(245.545 15.8216 0)
(247.428 15.2419 0)
(248.577 14.0295 0)
(248.683 12.7957 0)
(248.648 11.8038 0)
(25.4237 8.8616 0)
(36.8587 18.6349 0)
(33.5056 23.8107 0)
(36.9432 24.0515 0)
(30.0363 25.5434 0)
(29.1052 21.2778 0)
(26.3484 18.419 0)
(27.3189 14.0586 0)
(27.9877 12.9051 0)
(29.4902 12.0499 0)
(30.1819 12.0724 0)
(30.3648 11.5301 0)
)
;

boundaryField
{
    bottom
    {
        type            symmetryPlane;
    }
    inlet1
    {
        type            fixedValue;
        value           uniform (754.6 0 0);
    }
    outlet1
    {
        type            zeroGradient;
    }
    top
    {
        type            zeroGradient;
    }
    wall1
    {
        type            slip;
    }
    bottomEmptyFaces
    {
        type            empty;
    }
    topEmptyFaces
    {
        type            empty;
    }
    procBoundary4to0
    {
        type            processor;
        value           nonuniform List<vector> 
18
(
(-529.901 8.54493 0)
(246.756 6.28629 0)
(240.205 24.7723 0)
(240.233 23.2727 0)
(240.321 21.8542 0)
(240.472 20.6003 0)
(240.898 19.5203 0)
(241.764 18.5987 0)
(242.869 17.8279 0)
(243.917 17.1575 0)
(244.791 16.5593 0)
(245.57 15.8824 0)
(246.263 14.8756 0)
(246.794 13.6556 0)
(247.209 12.7015 0)
(247.241 12.1714 0)
(247.819 11.3783 0)
(30.1547 10.8867 0)
)
;
    }
    procBoundary4to5
    {
        type            processor;
        value           nonuniform List<vector> 
14
(
(251.069 23.8383 0)
(250.83 24.4762 0)
(249.56 24.8099 0)
(247.137 24.691 0)
(244.09 24.672 0)
(241.686 24.6012 0)
(240.541 24.4139 0)
(240.11 24.1468 0)
(240.11 24.1468 0)
(240.858 24.7194 0)
(241.147 24.9388 0)
(241.42 25.2998 0)
(241.371 25.73 0)
(240.993 26.0891 0)
)
;
    }
}


// ************************************************************************* //
