/*--------------------------------*- C++ -*----------------------------------*\
| =========                 |                                                 |
| \\      /  F ield         | OpenFOAM: The Open Source CFD Toolbox           |
|  \\    /   O peration     | Version:  2306                                  |
|   \\  /    A nd           | Website:  www.openfoam.com                      |
|    \\/     M anipulation  |                                                 |
\*---------------------------------------------------------------------------*/
FoamFile
{
    version     2.0;
    format      ascii;
    arch        "LSB;label=32;scalar=64";
    class       volScalarField;
    location    "0.1";
    object      p;
}
// * * * * * * * * * * * * * * * * * * * * * * * * * * * * * * * * * * * * * //

dimensions      [1 -1 -2 0 0 0 0];

internalField   nonuniform List<scalar> 
221
(
226575
234502
245473
257710
266934
272718
277212
282986
272910
254092
229664
212663
208037
207844
214824
222589
232028
243095
256684
271747
286810
298169
301180
272335
241779
221652
216490
216305
213192
200835
187765
179933
185164
220856
313353
402056
425611
442297
455336
231330
226473
230283
232837
236707
238007
250852
244242
255551
265984
276244
266365
250964
245740
241902
239487
238811
239005
247882
246811
245134
250213
254910
257096
265404
270078
267404
249942
258616
259834
248558
241830
234552
233114
242711
256821
246935
242646
238120
246636
244646
241674
237884
245619
252031
254834
241427
227409
220177
217655
221079
229689
229528
234075
251405
245584
242131
245962
235720
227710
236915
248517
264007
256439
251154
243866
250342
250627
244231
230947
257606
280827
284613
277258
279184
269452
249904
250842
222102
231522
257258
288860
301063
385910
360269
331094
318510
351789
381379
409979
410007
426600
442092
428302
429967
449001
431470
409712
374473
338801
300320
269637
242969
218929
207942
213212
230719
248011
252265
254034
258295
265318
267205
263656
254280
244486
234954
227333
224322
226435
233201
241762
241907
237287
233536
219138
229337
219575
215901
218765
216224
210296
211758
223221
224517
233450
243755
255115
256068
243372
232653
270057
267421
278679
282245
276835
292898
292259
283271
268167
261498
251140
239175
218522
214645
226867
246892
211341
207423
204947
211067
226540
214397
208869
209269
224413
246177
275971
317740
363993
349067
287421
247878
408532
409809
432883
450634
452455
435178
438746
419499
454998
)
;

boundaryField
{
    bottom
    {
        type            symmetryPlane;
    }
    inlet1
    {
        type            fixedValue;
        value           nonuniform List<scalar> 0();
    }
    outlet1
    {
        type            zeroGradient;
    }
    top
    {
        type            zeroGradient;
    }
    wall1
    {
        type            zeroGradient;
    }
    bottomEmptyFaces
    {
        type            empty;
    }
    topEmptyFaces
    {
        type            empty;
    }
    procBoundary3to2
    {
        type            processor;
        value           nonuniform List<scalar> 10(466323 454967 444612 444612 447071 447071 463592 465528 467172 467716);
    }
    procBoundary3to7
    {
        type            processor;
        value           nonuniform List<scalar> 
34
(
221142
439845
425130
225248
231161
239440
248587
258287
268117
276265
279421
271962
254154
240226
227620
216027
210475
209420
215014
222250
233161
248268
268551
292547
311936
311024
291097
307738
307738
339231
364846
388154
409747
409747
)
;
    }
}


// ************************************************************************* //
