/*--------------------------------*- C++ -*----------------------------------*\
| =========                 |                                                 |
| \\      /  F ield         | OpenFOAM: The Open Source CFD Toolbox           |
|  \\    /   O peration     | Version:  2306                                  |
|   \\  /    A nd           | Website:  www.openfoam.com                      |
|    \\/     M anipulation  |                                                 |
\*---------------------------------------------------------------------------*/
FoamFile
{
    version     2.0;
    format      ascii;
    arch        "LSB;label=32;scalar=64";
    class       volScalarField;
    location    "0.1";
    object      T;
}
// * * * * * * * * * * * * * * * * * * * * * * * * * * * * * * * * * * * * * //

dimensions      [0 0 0 1 0 0 0];

internalField   nonuniform List<scalar> 
221
(
424.129
427.828
433.327
439.833
445.097
448.498
450.887
453.552
448.911
439.889
427.369
418.023
415.376
415.26
419.205
423.534
428.65
434.472
441.331
448.615
455.613
460.731
462.097
449.063
434.197
423.64
420.968
421.251
419.815
412.861
405.117
400.168
401.312
420.998
463.372
497.971
505.975
511.593
515.864
426.608
424.073
425.585
426.927
428.759
429.437
436.326
433.015
439.518
444.499
450.139
445.518
438.038
434.657
431.83
430.182
429.913
430.504
434.988
433.904
433.001
435.544
437.87
439.49
443.445
445.622
444.327
435.314
439.561
440.234
434.692
431.291
427.493
426.697
431.665
439.242
434.361
432.24
429.975
433.632
432.661
431.137
429.115
433.02
436.146
437.524
431.069
424.367
420.478
419.095
420.944
424.974
424.921
427.305
435.87
432.949
431.194
433.116
428.121
424.5
429.282
435.138
442.696
438.461
435.923
432.272
435.286
435.407
432.009
425.168
439.02
450.495
452.19
448.687
449.482
444.632
435.187
435.689
420.414
425.355
438.492
453.255
458.958
492.83
483.17
471.606
466.136
479.601
490.848
501.162
501.489
507.606
512.883
507.832
508.096
514.247
508.377
500.881
488.107
474.278
458.196
444.245
431.247
418.352
412.641
415.723
425.219
434.15
436.404
437.307
439.443
442.904
443.882
442.248
437.8
432.943
428.135
424.188
422.713
423.886
427.481
431.976
431.897
430.414
429.147
421.402
426.323
421.026
418.988
420.487
419.73
416.44
417.277
423.588
423.572
428.268
433.551
439.241
440.636
434.252
428.646
447.374
445.094
450.259
451.832
449.136
457.785
457.519
453.501
446.362
441.806
436.729
430.733
419.618
418.952
425.697
436.051
416.976
413.172
411.658
414.695
423.113
418.068
415.564
415.818
423.078
433.083
447.314
465.55
483.999
477.999
452.649
434.476
500.273
500.787
508.699
514.634
515.103
509.358
510.462
503.965
515.815
)
;

boundaryField
{
    bottom
    {
        type            symmetryPlane;
    }
    inlet1
    {
        type            fixedValue;
        value           nonuniform List<scalar> 0();
    }
    outlet1
    {
        type            zeroGradient;
    }
    top
    {
        type            zeroGradient;
    }
    wall1
    {
        type            zeroGradient;
    }
    bottomEmptyFaces
    {
        type            empty;
    }
    topEmptyFaces
    {
        type            empty;
    }
    procBoundary3to2
    {
        type            processor;
        value           nonuniform List<scalar> 10(519.381 517.183 513.339 513.339 513.835 513.835 519.022 519.497 519.884 519.911);
    }
    procBoundary3to7
    {
        type            processor;
        value           nonuniform List<scalar> 
34
(
421.706
512.485
507.504
423.936
427.059
431.403
436.026
440.785
445.486
449.292
450.743
447.275
438.696
431.734
425.186
418.87
415.762
415.163
418.285
422.266
428.048
435.714
445.518
456.432
464.817
463.939
455.179
462.215
462.215
475.282
485.322
494.072
501.763
501.763
)
;
    }
}


// ************************************************************************* //
