/*--------------------------------*- C++ -*----------------------------------*\
| =========                 |                                                 |
| \\      /  F ield         | OpenFOAM: The Open Source CFD Toolbox           |
|  \\    /   O peration     | Version:  2306                                  |
|   \\  /    A nd           | Website:  www.openfoam.com                      |
|    \\/     M anipulation  |                                                 |
\*---------------------------------------------------------------------------*/
FoamFile
{
    version     2.0;
    format      ascii;
    arch        "LSB;label=32;scalar=64";
    class       volVectorField;
    location    "0.1";
    object      U;
}
// * * * * * * * * * * * * * * * * * * * * * * * * * * * * * * * * * * * * * //

dimensions      [0 1 -1 0 0 0 0];

internalField   nonuniform List<vector> 
221
(
(554.321 -6.35305 0)
(548.39 -5.1895 0)
(539.311 -1.68574 0)
(529.194 2.51537 0)
(521.512 4.1412 0)
(515.441 3.70931 0)
(513.067 -0.789158 0)
(508.437 -3.18749 0)
(518.264 -8.02365 0)
(529.947 -6.37282 0)
(552.656 -4.99931 0)
(569.552 -0.638116 0)
(574.246 1.95355 0)
(574.563 2.98378 0)
(567.882 3.85038 0)
(560.638 3.50465 0)
(551.59 3.55431 0)
(541.429 3.56494 0)
(529.091 3.0011 0)
(515.669 2.19059 0)
(502.63 0.604139 0)
(492.959 -2.36353 0)
(490.06 -5.28349 0)
(514.583 -8.60094 0)
(542.952 -5.54498 0)
(564.439 -2.43911 0)
(570.108 -2.19289 0)
(569.852 -4.81056 0)
(570.357 -6.84377 0)
(579.755 -3.85482 0)
(587.872 11.8546 0)
(587.694 39.7413 0)
(583.044 79.8324 0)
(539.287 114.078 0)
(462.249 121.465 0)
(397.414 107.649 0)
(373.922 104.785 0)
(360.119 98.4039 0)
(347.121 95.9533 0)
(549.237 -15.2442 0)
(553.99 -13.4984 0)
(551.588 -15.0112 0)
(549.079 -18.9845 0)
(546.464 -21.2847 0)
(545.048 -14.7393 0)
(535.156 -11.1549 0)
(539.935 -20.6395 0)
(530.128 -15.4471 0)
(523.008 -5.1744 0)
(513.659 -0.767597 0)
(522.071 -9.49902 0)
(538.386 -17.8614 0)
(540.587 -24.8021 0)
(542.43 -26.9058 0)
(542.891 -24.7709 0)
(543.35 -20.2998 0)
(541.578 -15.6646 0)
(533.168 -15.3351 0)
(535.957 -19.987 0)
(538.577 -25.0903 0)
(535.065 -21.9161 0)
(529.117 -18.8076 0)
(524.929 -14.906 0)
(518.243 -13.1654 0)
(515.462 -8.67561 0)
(516.469 2.10902 0)
(534.4 9.51103 0)
(526.377 -4.84746 0)
(526.263 -15.1996 0)
(535.353 -13.1048 0)
(542.851 1.18401 0)
(548.453 14.3806 0)
(551.582 24.3436 0)
(540.794 22.8925 0)
(526.606 17.4354 0)
(535.606 28.8112 0)
(540.601 32.4922 0)
(543.536 26.4575 0)
(538.89 30.9233 0)
(539.225 32.7902 0)
(542.795 30.8282 0)
(546.939 28.9531 0)
(540.703 29.6316 0)
(535.288 28.7306 0)
(533.833 22.6835 0)
(543.15 20.2407 0)
(552.467 16.3927 0)
(560.022 3.92617 0)
(562.427 -5.90149 0)
(559.147 -14.4046 0)
(555.004 -17.465 0)
(553.535 -6.28043 0)
(549.864 6.87063 0)
(535.895 9.90553 0)
(541.179 -5.54218 0)
(544.176 -20.1844 0)
(540.366 -30.6602 0)
(547.925 -25.6641 0)
(552.355 -20.2609 0)
(542.34 -26.929 0)
(532.107 -30.4918 0)
(519.327 -30.273 0)
(526.778 -39.5296 0)
(532.208 -38.7238 0)
(539.918 -33.2768 0)
(535.627 -36.802 0)
(533.834 -39.6334 0)
(537.654 -38.3304 0)
(551.717 -16.65 0)
(529.065 -23.3031 0)
(507.941 -20.4935 0)
(500.959 1.67117 0)
(507.309 31.4511 0)
(502.975 53.2641 0)
(511.97 47.0566 0)
(535.751 32.123 0)
(530.355 3.88135 0)
(557.391 4.04456 0)
(551.369 24.205 0)
(527.261 33.9398 0)
(498.169 46.4912 0)
(486.269 52.1615 0)
(407.804 68.7812 0)
(431.529 65.8752 0)
(457.074 60.4965 0)
(468.765 60.1476 0)
(439.178 69.2879 0)
(411.474 74.5741 0)
(386.209 75.3817 0)
(385.977 68.8449 0)
(367.946 60.7486 0)
(353.115 59.3376 0)
(368.702 65.8541 0)
(367.443 71.9503 0)
(351.815 76.5843 0)
(366.834 78.8144 0)
(387.645 83.0245 0)
(419.191 81.3581 0)
(451.86 72.2973 0)
(487.721 56.8737 0)
(515.093 38.28 0)
(542.114 17.2476 0)
(563.482 8.04707 0)
(572.846 -2.37309 0)
(567.591 -10.9889 0)
(552.997 -23.6608 0)
(535.41 -35.2472 0)
(534.237 -35.7634 0)
(532.886 -31.4269 0)
(529.172 -19.061 0)
(523.091 -2.50516 0)
(522.055 12.3174 0)
(525.361 20.7126 0)
(533.185 23.0501 0)
(541.577 23.5227 0)
(549.964 23.2988 0)
(556.019 22.1675 0)
(558.451 16.6361 0)
(556.467 6.72207 0)
(548.672 -8.0888 0)
(542.856 -19.6827 0)
(542.434 -28.5011 0)
(547.126 -27.1735 0)
(551.714 -18.8101 0)
(563.835 -8.42472 0)
(553.64 -14.5422 0)
(561.997 -2.143 0)
(565.425 7.82807 0)
(562.675 14.7091 0)
(564.5 9.89273 0)
(571.588 5.89879 0)
(570.19 0.0920049 0)
(558.545 9.89623 0)
(558.182 16.706 0)
(550.252 16.807 0)
(540.866 17.3963 0)
(530.891 16.6963 0)
(527.566 10.3525 0)
(539.22 10.7476 0)
(549.278 10.3456 0)
(515.132 9.19908 0)
(520.274 14.7387 0)
(511.278 10.0057 0)
(506.924 0.292731 0)
(510.802 -13.3686 0)
(495.094 -7.67923 0)
(497.42 1.78234 0)
(504.115 6.63827 0)
(522.573 -19.9724 0)
(526.214 -27.8182 0)
(535.463 -32.469 0)
(543.69 -22.8166 0)
(564.571 -9.94294 0)
(571.435 -2.10475 0)
(558.064 -9.8345 0)
(538.822 -22.3245 0)
(574.926 -2.48535 0)
(574.915 -5.6338 0)
(576.858 -6.7048 0)
(567.36 -5.12056 0)
(554.185 4.56076 0)
(581.205 -14.6868 0)
(582.416 -16.8815 0)
(578.788 -10.6816 0)
(571.63 7.36399 0)
(534.358 26.948 0)
(510.161 48.7608 0)
(471.083 72.2352 0)
(429.99 87.6957 0)
(444.818 91.0084 0)
(505.14 66.9611 0)
(551.773 32.9019 0)
(389.864 99.2819 0)
(390.038 90.8072 0)
(366.343 85.6687 0)
(351.301 82.677 0)
(349.855 87.6922 0)
(364.835 91.3684 0)
(361.968 95.4739 0)
(379.661 99.7703 0)
(347.582 91.1613 0)
)
;

boundaryField
{
    bottom
    {
        type            symmetryPlane;
    }
    inlet1
    {
        type            fixedValue;
        value           nonuniform List<vector> 0();
    }
    outlet1
    {
        type            zeroGradient;
    }
    top
    {
        type            zeroGradient;
    }
    wall1
    {
        type            slip;
    }
    bottomEmptyFaces
    {
        type            empty;
    }
    topEmptyFaces
    {
        type            empty;
    }
    procBoundary3to2
    {
        type            processor;
        value           nonuniform List<vector> 10((338.093 91.5737 0) (340.243 56.7706 0) (353.975 64.2749 0) (353.975 64.2749 0) (352.636 70.2276 0) (352.636 70.2276 0) (339.047 72.719 0) (338.353 78.622 0) (337.28 83.7342 0) (335.386 88.6025 0));
    }
    procBoundary3to7
    {
        type            processor;
        value           nonuniform List<vector> 
34
(
(558.325 -5.9291 0)
(351.886 55.4001 0)
(366.396 56.9698 0)
(552.777 -10.8612 0)
(548.474 -10.4589 0)
(540.418 -10.8463 0)
(532.068 -10.4969 0)
(523.32 -10.3388 0)
(514.788 -9.33698 0)
(508.24 -7.06671 0)
(505.65 -0.987162 0)
(511.859 9.63014 0)
(527.573 22.6724 0)
(539.96 28.3539 0)
(550.068 20.445 0)
(562.588 9.07203 0)
(566.61 1.99451 0)
(568.39 -5.19329 0)
(561.808 -10.8787 0)
(554.717 -15.1374 0)
(543.487 -19.9427 0)
(530.035 -21.2754 0)
(511.87 -20.195 0)
(491.976 -13.7877 0)
(476.899 -1.51575 0)
(472.319 24.2144 0)
(493.583 54.6464 0)
(477.441 57.5676 0)
(477.441 57.5676 0)
(449.596 61.2828 0)
(426.141 64.7174 0)
(404.309 64.5555 0)
(384.372 63.5374 0)
(384.372 63.5374 0)
)
;
    }
}


// ************************************************************************* //
