/*--------------------------------*- C++ -*----------------------------------*\
| =========                 |                                                 |
| \\      /  F ield         | OpenFOAM: The Open Source CFD Toolbox           |
|  \\    /   O peration     | Version:  2306                                  |
|   \\  /    A nd           | Website:  www.openfoam.com                      |
|    \\/     M anipulation  |                                                 |
\*---------------------------------------------------------------------------*/
FoamFile
{
    version     2.0;
    format      ascii;
    arch        "LSB;label=32;scalar=64";
    class       volScalarField;
    location    "0.01";
    object      p;
}
// * * * * * * * * * * * * * * * * * * * * * * * * * * * * * * * * * * * * * //

dimensions      [1 -1 -2 0 0 0 0];

internalField   nonuniform List<scalar> 
242
(
554699
552915
552036
551434
551291
551379
551086
550086
548624
547111
545842
544863
544221
543935
543820
543032
541222
538884
536418
555065
553609
552869
552388
552292
552378
551906
550722
549197
547742
546584
545739
545234
545059
545016
544252
542432
540077
537590
538640
541146
543500
545293
545950
545850
545829
546490
546607
546794
546246
544521
542196
539711
540715
543198
545538
546562
544196
541719
542679
545055
547405
549119
548264
547239
547712
547428
547176
547952
548334
548707
549595
549214
548771
550005
550447
550730
550064
548255
545963
543718
544702
546727
548873
549410
547440
545612
546444
548067
549840
551626
551266
550742
551702
551664
551302
552696
552848
552506
553076
553826
554055
555262
554629
553455
551871
550214
548659
547242
548077
549315
550658
552154
553782
555300
556422
557154
555672
554151
552562
551115
549850
548700
547947
547285
546729
546133
546840
547978
549535
551263
552652
553407
553391
554674
554542
553669
552190
550306
548637
547445
547944
549144
550922
551646
549780
548566
549262
550421
552239
554721
554026
553055
554746
555780
556054
557371
557067
555952
556869
558140
558585
558027
556760
555574
554353
553306
553482
553878
554782
554525
554136
554128
554894
554453
554351
554156
554581
555574
556522
554897
553988
554595
555827
557597
559112
559609
559051
557567
555266
552857
551228
550252
551377
552124
553376
554310
553290
552714
554327
554728
555445
556565
555904
555385
557949
559798
560517
560954
560039
558110
558200
559913
560967
560809
559792
558557
557576
556959
556499
556080
557758
558346
558829
559112
559390
559942
560667
561273
561279
561189
560872
560123
558710
556795
558314
559934
560851
560020
561148
561311
561638
561776
)
;

boundaryField
{
    bottom
    {
        type            symmetryPlane;
    }
    inlet1
    {
        type            fixedValue;
        value           nonuniform List<scalar> 0();
    }
    outlet1
    {
        type            zeroGradient;
    }
    top
    {
        type            zeroGradient;
    }
    wall1
    {
        type            zeroGradient;
    }
    bottomEmptyFaces
    {
        type            empty;
    }
    topEmptyFaces
    {
        type            empty;
    }
    procBoundary5to1
    {
        type            processor;
        value           nonuniform List<scalar> 
18
(
549164
550257
551406
552721
554276
555959
557483
558645
559516
560205
560700
560948
560879
560735
560839
561296
561834
562251
)
;
    }
    procBoundary5to4
    {
        type            processor;
        value           nonuniform List<scalar> 
14
(
556771
556810
556332
555799
554994
554327
553798
554041
555369
555369
556892
558850
560766
561812
)
;
    }
    procBoundary5to6
    {
        type            processor;
        value           nonuniform List<scalar> 
13
(
534243
535396
540564
539487
538489
537489
536415
541722
546896
545959
545014
544001
542906
)
;
    }
}


// ************************************************************************* //
