/*--------------------------------*- C++ -*----------------------------------*\
| =========                 |                                                 |
| \\      /  F ield         | OpenFOAM: The Open Source CFD Toolbox           |
|  \\    /   O peration     | Version:  2306                                  |
|   \\  /    A nd           | Website:  www.openfoam.com                      |
|    \\/     M anipulation  |                                                 |
\*---------------------------------------------------------------------------*/
FoamFile
{
    version     2.0;
    format      ascii;
    arch        "LSB;label=32;scalar=64";
    class       volScalarField;
    location    "0.01";
    object      T;
}
// * * * * * * * * * * * * * * * * * * * * * * * * * * * * * * * * * * * * * //

dimensions      [0 0 0 1 0 0 0];

internalField   nonuniform List<scalar> 
242
(
552.375
551.907
551.681
551.523
551.496
551.534
551.463
551.182
550.759
550.318
549.94
549.634
549.41
549.277
549.189
548.902
548.329
547.6
546.83
552.447
552.047
551.856
551.739
551.72
551.75
551.62
551.286
550.841
550.404
550.04
549.752
549.55
549.437
549.36
549.072
548.495
547.764
546.99
546.934
547.713
548.446
549.029
549.299
549.341
549.398
549.198
549.172
549.159
548.922
548.35
547.625
546.855
546.795
547.553
548.27
548.244
547.534
546.787
546.805
547.517
548.221
548.749
548.778
548.823
549.018
548.995
548.982
548.829
548.884
548.948
548.915
548.836
548.755
548.863
548.958
549.016
548.798
548.25
547.567
546.896
547
547.607
548.245
548.214
547.614
547.048
547.009
547.538
548.101
548.658
548.776
548.805
549.111
549.123
549.042
549.27
549.283
549.16
549.111
549.357
549.46
549.55
549.329
548.941
548.428
547.891
547.375
546.891
546.734
547.168
547.632
548.136
548.675
549.182
549.564
549.822
549.71
549.52
549.253
549.005
548.845
548.77
548.868
549.067
549.332
549.557
549.829
550.214
550.703
551.222
551.625
551.843
551.84
551.886
551.846
551.584
551.132
550.548
550.012
549.605
549.314
549.716
550.28
550.066
549.487
549.091
548.973
549.343
549.89
550.616
550.782
550.938
551.458
551.781
551.871
551.81
551.704
551.359
551.243
551.63
551.779
551.645
551.659
551.744
551.797
551.811
551.855
551.968
552.244
551.91
551.769
551.749
551.567
551.472
551.468
550.971
551.076
551.342
551.244
550.807
550.568
550.469
550.786
551.256
551.663
551.785
551.606
551.163
550.486
549.789
549.301
548.991
549.094
549.327
549.71
549.8
549.488
549.31
549.597
549.734
549.961
550.305
550.289
550.313
551.071
551.622
551.84
551.807
551.52
550.941
550.794
551.302
551.635
551.386
551.073
550.706
550.395
550.186
550.021
549.865
550.044
550.258
550.445
550.573
550.692
550.887
551.122
551.326
551.557
551.723
551.799
551.742
551.363
550.835
551.104
551.549
551.646
551.429
551.566
551.592
551.467
551.539
)
;

boundaryField
{
    bottom
    {
        type            symmetryPlane;
    }
    inlet1
    {
        type            fixedValue;
        value           nonuniform List<scalar> 0();
    }
    outlet1
    {
        type            zeroGradient;
    }
    top
    {
        type            zeroGradient;
    }
    wall1
    {
        type            zeroGradient;
    }
    bottomEmptyFaces
    {
        type            empty;
    }
    topEmptyFaces
    {
        type            empty;
    }
    procBoundary5to1
    {
        type            processor;
        value           nonuniform List<scalar> 
18
(
546.637
547.032
547.439
547.891
548.415
548.973
549.481
549.873
550.176
550.433
550.638
550.764
550.786
550.801
550.878
551.046
551.239
551.402
)
;
    }
    procBoundary5to4
    {
        type            processor;
        value           nonuniform List<scalar> 
14
(
552.933
552.935
552.709
552.311
551.682
551.033
550.526
550.329
550.443
550.443
550.701
551.119
551.486
551.573
)
;
    }
    procBoundary5to6
    {
        type            processor;
        value           nonuniform List<scalar> 
13
(
546.145
546.3
546.165
546.104
546.109
546.16
546.236
546.296
546.316
546.441
546.527
546.537
546.451
)
;
    }
}


// ************************************************************************* //
