/*--------------------------------*- C++ -*----------------------------------*\
| =========                 |                                                 |
| \\      /  F ield         | OpenFOAM: The Open Source CFD Toolbox           |
|  \\    /   O peration     | Version:  2306                                  |
|   \\  /    A nd           | Website:  www.openfoam.com                      |
|    \\/     M anipulation  |                                                 |
\*---------------------------------------------------------------------------*/
FoamFile
{
    version     2.0;
    format      ascii;
    arch        "LSB;label=32;scalar=64";
    class       volVectorField;
    location    "0.01";
    object      U;
}
// * * * * * * * * * * * * * * * * * * * * * * * * * * * * * * * * * * * * * //

dimensions      [0 1 -1 0 0 0 0];

internalField   nonuniform List<vector> 
242
(
(252.538 24.4168 0)
(252.139 24.6816 0)
(252.379 24.8575 0)
(252.931 25.0989 0)
(253.859 25.4575 0)
(254.936 25.9369 0)
(255.895 26.5832 0)
(256.416 27.371 0)
(256.7 28.2751 0)
(257.057 29.2347 0)
(257.671 30.1584 0)
(258.56 31.0692 0)
(259.743 31.9789 0)
(261.235 32.8961 0)
(262.857 33.845 0)
(264.186 34.8421 0)
(264.885 35.8055 0)
(265.271 36.8257 0)
(265.611 37.9218 0)
(252.03 24.8137 0)
(251.737 25.2674 0)
(251.995 25.5548 0)
(252.564 25.8687 0)
(253.465 26.215 0)
(254.479 26.6168 0)
(255.298 27.1688 0)
(255.682 27.8855 0)
(255.921 28.8169 0)
(256.3 29.841 0)
(256.958 30.8565 0)
(257.896 31.8728 0)
(259.126 32.8753 0)
(260.65 33.8628 0)
(262.285 34.8543 0)
(263.623 35.8695 0)
(264.313 36.8318 0)
(264.687 37.8412 0)
(265.01 38.9237 0)
(262.616 39.311 0)
(262.304 38.2467 0)
(261.941 37.2508 0)
(261.252 36.2888 0)
(259.887 35.2509 0)
(258.225 34.2026 0)
(256.65 33.1157 0)
(253.14 33.5804 0)
(254.803 34.6504 0)
(256.529 35.7103 0)
(257.958 36.7896 0)
(258.693 37.815 0)
(259.089 38.866 0)
(259.451 39.9738 0)
(256.812 40.5585 0)
(256.348 39.4288 0)
(255.883 38.3383 0)
(254.087 39.113 0)
(254.655 40.2929 0)
(255.26 41.4785 0)
(254.595 42.5972 0)
(253.811 41.3503 0)
(253.127 40.0614 0)
(252.165 38.7795 0)
(253.195 37.9522 0)
(255.077 37.2762 0)
(253.569 36.1929 0)
(251.758 35.1365 0)
(249.98 34.0599 0)
(247.859 34.5903 0)
(249.732 35.6864 0)
(251.616 36.7965 0)
(250.561 37.5356 0)
(248.648 36.3681 0)
(246.717 35.2605 0)
(246.394 36.0871 0)
(248.402 37.1731 0)
(250.353 38.3434 0)
(251.952 39.653 0)
(252.921 41.0511 0)
(253.706 42.4426 0)
(254.625 43.725 0)
(254.727 44.8438 0)
(253.704 43.5068 0)
(252.823 42.0395 0)
(252.585 43.051 0)
(253.527 44.56 0)
(254.619 45.9151 0)
(254.193 46.8564 0)
(253.032 45.5189 0)
(252.02 44.0033 0)
(251.079 42.3502 0)
(251.647 41.4474 0)
(251.86 40.5264 0)
(250.415 39.086 0)
(248.556 37.8552 0)
(246.603 36.7622 0)
(246.989 37.3246 0)
(248.767 38.4763 0)
(250.43 39.8676 0)
(250.036 40.6769 0)
(248.689 39.1418 0)
(247.15 37.8332 0)
(246.85 38.398 0)
(248.089 39.8227 0)
(249.15 41.4588 0)
(250.082 43.1983 0)
(251.067 44.8487 0)
(252.164 46.3184 0)
(253.402 47.5975 0)
(252.167 48.1219 0)
(250.861 46.9191 0)
(249.667 45.5406 0)
(248.62 43.9718 0)
(247.738 42.2438 0)
(246.912 40.5168 0)
(246.002 38.9744 0)
(245.021 37.6442 0)
(245.602 37.1753 0)
(245.667 36.7464 0)
(245.324 36.3163 0)
(244.882 35.7377 0)
(244.689 35.0357 0)
(245.081 34.1898 0)
(246.281 33.497 0)
(248.488 32.9494 0)
(251.765 32.4964 0)
(255.361 31.9865 0)
(254.428 30.8531 0)
(253.826 29.7599 0)
(253.541 28.721 0)
(253.426 27.8438 0)
(253.18 27.234 0)
(252.577 26.7692 0)
(251.69 26.4566 0)
(248.798 26.7092 0)
(249.539 27.1801 0)
(249.956 27.7791 0)
(250.068 28.5049 0)
(250.026 29.4127 0)
(250.215 30.4211 0)
(250.797 31.4369 0)
(247.416 31.8382 0)
(246.775 30.7447 0)
(246.599 29.6289 0)
(244.21 30.3009 0)
(244.42 31.4037 0)
(245.123 32.4366 0)
(243.852 33.1661 0)
(243.08 32.1634 0)
(242.788 31.0589 0)
(243.019 29.8708 0)
(244.441 29.2113 0)
(246.769 28.6109 0)
(246.79 27.8491 0)
(246.494 27.305 0)
(245.832 26.855 0)
(243.663 27.0793 0)
(244.294 27.6606 0)
(244.544 28.3345 0)
(243.212 28.8133 0)
(243.043 27.9492 0)
(242.485 27.2252 0)
(241.579 26.5839 0)
(242.692 26.5846 0)
(244.926 26.4541 0)
(247.962 26.3269 0)
(250.841 26.1761 0)
(250.247 25.8339 0)
(249.97 25.4307 0)
(250.181 24.7984 0)
(246.957 24.7313 0)
(246.917 25.4005 0)
(247.289 25.9035 0)
(243.98 25.968 0)
(243.371 25.3455 0)
(243.143 24.632 0)
(239.914 24.4628 0)
(240.452 25.3225 0)
(241.452 26.0489 0)
(240.185 25.9885 0)
(238.871 25.362 0)
(238.046 24.628 0)
(237.341 24.4851 0)
(238.315 25.139 0)
(239.726 25.8216 0)
(241.12 26.6037 0)
(241.96 27.4641 0)
(242.472 28.3479 0)
(242.564 29.3634 0)
(242.306 30.61 0)
(242.128 31.9032 0)
(242.514 33.0075 0)
(243.368 34.0095 0)
(243.494 34.7341 0)
(242.52 33.7484 0)
(241.913 32.7202 0)
(242.287 33.384 0)
(242.948 34.3836 0)
(243.951 35.3551 0)
(244.393 35.8069 0)
(243.392 34.9219 0)
(242.681 33.9852 0)
(242.28 32.8817 0)
(242.02 32.2195 0)
(241.84 31.4282 0)
(242.202 30.0107 0)
(242.324 28.7738 0)
(241.907 27.6368 0)
(242.041 27.8909 0)
(242.331 29.3031 0)
(242.189 30.7927 0)
(242.229 31.5054 0)
(242.31 29.9332 0)
(242.137 28.3366 0)
(241.873 28.9012 0)
(242.015 30.5739 0)
(242.093 32.1145 0)
(242.368 33.3555 0)
(242.894 34.3208 0)
(243.605 35.1842 0)
(244.507 36.1111 0)
(244.112 36.4687 0)
(243.356 35.4122 0)
(242.716 34.4573 0)
(242.14 33.5393 0)
(241.661 32.4818 0)
(241.354 31.0971 0)
(241.177 29.4414 0)
(240.995 27.7626 0)
(241.532 27.2775 0)
(241.614 26.825 0)
(241.395 26.579 0)
(241.1 26.5765 0)
(239.795 25.6735 0)
(238.352 24.9372 0)
(239.163 24.756 0)
(240.395 25.4802 0)
(240.961 25.5041 0)
(240.163 24.5022 0)
(240.664 24.5507 0)
(241.084 25.8126 0)
(240.769 26.2241 0)
(240.559 24.8499 0)
)
;

boundaryField
{
    bottom
    {
        type            symmetryPlane;
    }
    inlet1
    {
        type            fixedValue;
        value           nonuniform List<vector> 0();
    }
    outlet1
    {
        type            zeroGradient;
    }
    top
    {
        type            zeroGradient;
    }
    wall1
    {
        type            slip;
    }
    bottomEmptyFaces
    {
        type            empty;
    }
    topEmptyFaces
    {
        type            empty;
    }
    procBoundary5to1
    {
        type            processor;
        value           nonuniform List<vector> 
18
(
(250.494 48.4801 0)
(249.128 47.3983 0)
(247.85 46.1451 0)
(246.728 44.7187 0)
(245.82 43.102 0)
(245.108 41.344 0)
(244.482 39.6165 0)
(243.839 38.1012 0)
(243.195 36.8052 0)
(242.6 35.6481 0)
(242.065 34.5603 0)
(241.544 33.5434 0)
(241.013 32.511 0)
(240.505 31.3345 0)
(240.178 29.8766 0)
(240.019 28.2453 0)
(239.981 26.6312 0)
(239.998 25.1441 0)
)
;
    }
    procBoundary5to4
    {
        type            processor;
        value           nonuniform List<vector> 
14
(
(253.284 24.1063 0)
(252.674 24.2838 0)
(250.926 24.0035 0)
(247.698 23.7667 0)
(243.494 23.6066 0)
(239.798 23.49 0)
(237.691 23.7944 0)
(236.88 23.8287 0)
(237.316 24.2496 0)
(237.316 24.2496 0)
(238.183 24.2661 0)
(239.413 23.9192 0)
(240.298 23.5838 0)
(240.438 23.6586 0)
)
;
    }
    procBoundary5to6
    {
        type            processor;
        value           nonuniform List<vector> 
13
(
(266.163 39.0203 0)
(265.544 40.0105 0)
(255.606 43.7372 0)
(256.089 42.5856 0)
(257.504 41.6333 0)
(260.031 41.0543 0)
(263.139 40.3744 0)
(255.752 44.881 0)
(253.544 49.2003 0)
(254.758 48.7455 0)
(255.498 48.0557 0)
(255.87 47.1519 0)
(255.924 46.0643 0)
)
;
    }
}


// ************************************************************************* //
