/*--------------------------------*- C++ -*----------------------------------*\
| =========                 |                                                 |
| \\      /  F ield         | OpenFOAM: The Open Source CFD Toolbox           |
|  \\    /   O peration     | Version:  2306                                  |
|   \\  /    A nd           | Website:  www.openfoam.com                      |
|    \\/     M anipulation  |                                                 |
\*---------------------------------------------------------------------------*/
FoamFile
{
    version     2.0;
    format      ascii;
    arch        "LSB;label=32;scalar=64";
    class       volScalarField;
    location    "0.02";
    object      p;
}
// * * * * * * * * * * * * * * * * * * * * * * * * * * * * * * * * * * * * * //

dimensions      [1 -1 -2 0 0 0 0];

internalField   nonuniform List<scalar> 
306
(
998464
955327
5.30179e+06
5.43552e+06
5.07518e+06
5.34262e+06
5.06268e+06
5.30948e+06
5.19363e+06
5.27201e+06
5.19963e+06
5.20461e+06
5.19359e+06
5.18929e+06
5.18123e+06
5.17223e+06
5.16411e+06
5.15611e+06
5.14897e+06
585987
592208
603700
588434
586559
582764
579347
576879
574824
573262
572006
571264
570919
570874
570775
566729
573507
573660
572940
569472
566204
560848
559835
559608
559456
558664
557730
555541
554931
555934
555273
553580
561990
562340
562095
561923
561471
561494
561731
561957
561900
562064
562661
561825
561417
562067
562169
563209
563163
562513
561342
560355
555557
557389
558975
559773
558008
556044
554029
553566
551592
552191
552974
554857
556801
558838
560707
562334
563524
564129
564026
563345
562606
562273
562263
562529
563168
564774
566761
568651
567587
565585
563735
563055
562840
563161
563966
563935
564544
566417
565443
565004
566428
567333
568436
569483
570255
571586
572798
574055
574097
572575
571206
570350
569184
568034
569879
571005
571966
573712
572808
571653
573720
574768
575368
575417
575214
576659
577938
579515
580590
578707
577040
577211
576774
575780
578170
579216
579444
582070
582212
580701
582979
584901
585746
582291
580839
580810
582420
589360
587288
585188
581714
580252
578865
576737
574546
572457
570421
568815
567162
566059
565219
564604
563952
564681
564842
564338
565143
565521
565300
565735
566023
565837
565115
564221
563278
561792
560021
558044
559507
561312
562889
563957
562544
560902
562021
563577
564907
565940
566483
566485
566222
566719
566635
566609
567032
567431
567980
569246
568333
567712
567173
566609
566329
565667
564641
563216
563767
565085
565968
566528
565746
564562
563373
562293
561686
560424
559178
557645
556155
554142
555291
556502
557586
558815
559581
561215
562305
564074
565137
566155
566979
567868
568704
569779
571035
572934
571455
570037
571612
573225
574920
576794
574815
573103
571583
570204
568959
567976
567134
566111
566862
567900
568967
570413
569611
569051
569528
570355
571243
572468
574005
575772
578020
578983
576523
574542
572919
571524
570444
569663
569485
569089
568926
566226
565115
563977
565402
568549
569233
570279
994157
994889
994289
993515
989942
985515
984135
980696
976887
977048
972950
983316
988218
1.01351e+06
1.0085e+06
)
;

boundaryField
{
    bottom
    {
        type            symmetryPlane;
    }
    inlet1
    {
        type            fixedValue;
        value           uniform 101325;
    }
    outlet1
    {
        type            zeroGradient;
    }
    top
    {
        type            zeroGradient;
    }
    wall1
    {
        type            zeroGradient;
    }
    bottomEmptyFaces
    {
        type            empty;
    }
    topEmptyFaces
    {
        type            empty;
    }
    procBoundary0to1
    {
        type            processor;
        value           nonuniform List<scalar> 
17
(
581557
561983
562695
564126
565922
567779
569401
570646
571587
572570
573620
574570
575731
576827
577994
578852
579015
)
;
    }
    procBoundary0to4
    {
        type            processor;
        value           nonuniform List<scalar> 
18
(
5.14064e+06
551529
561902
561796
561414
560952
560525
560415
560645
560545
560041
559248
558196
556918
555356
553553
551376
991562
)
;
    }
}


// ************************************************************************* //
