/*--------------------------------*- C++ -*----------------------------------*\
| =========                 |                                                 |
| \\      /  F ield         | OpenFOAM: The Open Source CFD Toolbox           |
|  \\    /   O peration     | Version:  2306                                  |
|   \\  /    A nd           | Website:  www.openfoam.com                      |
|    \\/     M anipulation  |                                                 |
\*---------------------------------------------------------------------------*/
FoamFile
{
    version     2.0;
    format      ascii;
    arch        "LSB;label=32;scalar=64";
    class       volScalarField;
    location    "0.02";
    object      rho;
}
// * * * * * * * * * * * * * * * * * * * * * * * * * * * * * * * * * * * * * //

dimensions      [1 -3 0 0 0 0 0];

internalField   nonuniform List<scalar> 
306
(
5.67657
5.49751
22.1266
22.5572
20.839
21.791
20.7609
21.8922
21.5062
21.8211
21.5477
21.5228
21.4246
21.3746
21.3242
21.2776
21.2368
21.1964
21.1595
3.68485
3.71268
3.76401
3.69672
3.68916
3.6723
3.65726
3.64669
3.63806
3.6317
3.62686
3.6245
3.62413
3.62577
3.62783
3.61026
3.64005
3.62436
3.60571
3.58826
3.58136
3.56408
3.56113
3.56028
3.55711
3.54808
3.53894
3.52594
3.52104
3.52396
3.51904
3.50921
3.55014
3.55406
3.55268
3.54962
3.54694
3.54717
3.5485
3.55177
3.55127
3.55176
3.55423
3.54836
3.54621
3.54922
3.54977
3.55654
3.55626
3.55325
3.54786
3.54132
3.51943
3.52765
3.53493
3.54062
3.53258
3.52383
3.51481
3.51053
3.50143
3.50632
3.51171
3.5205
3.52936
3.53858
3.54717
3.5547
3.56024
3.56311
3.56279
3.55997
3.5569
3.55565
3.55583
3.55731
3.56049
3.57076
3.58283
3.59415
3.58922
3.57727
3.56574
3.56234
3.56116
3.56239
3.56923
3.56922
3.57226
3.58381
3.57921
3.57704
3.58625
3.59046
3.59543
3.60014
3.60362
3.6111
3.61731
3.6229
3.62311
3.6164
3.60949
3.60577
3.60066
3.59559
3.6047
3.60959
3.61378
3.62138
3.61734
3.61222
3.62063
3.62542
3.62821
3.62847
3.62763
3.63431
3.64129
3.65049
3.65522
3.64454
3.63583
3.63648
3.6343
3.62963
3.64153
3.64648
3.64771
3.66185
3.66257
3.65555
3.66919
3.67782
3.68082
3.66522
3.65867
3.66051
3.66782
3.69918
3.6908
3.68188
3.66628
3.65664
3.64703
3.63495
3.62396
3.61493
3.60683
3.60014
3.59169
3.58445
3.57788
3.57191
3.56573
3.56873
3.56924
3.56674
3.57356
3.5755
3.57475
3.57999
3.58111
3.58015
3.57668
3.56913
3.56171
3.55473
3.54648
3.53737
3.54696
3.55537
3.56282
3.57116
3.56444
3.55672
3.56548
3.57268
3.57887
3.58373
3.58634
3.58638
3.58517
3.58973
3.58933
3.58915
3.59227
3.59402
3.59649
3.60174
3.59786
3.59531
3.59309
3.59053
3.58791
3.585
3.58044
3.57404
3.57844
3.58423
3.58791
3.59042
3.58717
3.58204
3.5769
3.57192
3.56709
3.5581
3.54862
3.53816
3.52852
3.5188
3.5266
3.53624
3.54516
3.55404
3.55985
3.56735
3.57035
3.57809
3.58271
3.58715
3.59079
3.59471
3.59833
3.603
3.60856
3.61653
3.60964
3.60304
3.61083
3.61857
3.62654
3.63741
3.62815
3.62
3.61256
3.60394
3.59801
3.59341
3.58946
3.5847
3.58684
3.59224
3.59773
3.60653
3.60203
3.59868
3.60745
3.61138
3.61547
3.62108
3.6281
3.63617
3.64644
3.65418
3.64342
3.63488
3.62803
3.62232
3.61815
3.61543
3.61526
3.60519
3.59736
3.58327
3.58004
3.57479
3.57903
3.59512
3.60599
3.62045
5.57555
5.58157
5.58201
5.58163
5.5699
5.55635
5.55842
5.55363
5.54326
5.54345
5.52367
5.5603
5.54919
5.66078
5.65628
)
;

boundaryField
{
    bottom
    {
        type            symmetryPlane;
    }
    inlet1
    {
        type            calculated;
        value           uniform 1.17641;
    }
    outlet1
    {
        type            calculated;
        value           nonuniform List<scalar> 0();
    }
    top
    {
        type            calculated;
        value           nonuniform List<scalar> 0();
    }
    wall1
    {
        type            calculated;
        value           nonuniform List<scalar> 3(3.76401 3.71268 3.68485);
    }
    bottomEmptyFaces
    {
        type            empty;
    }
    topEmptyFaces
    {
        type            empty;
    }
    procBoundary0to1
    {
        type            processor;
        value           nonuniform List<scalar> 
17
(
3.66497
3.55039
3.55594
3.56516
3.57627
3.58762
3.59767
3.6054
3.61101
3.61618
3.6209
3.62483
3.63033
3.63651
3.64375
3.64977
3.65248
)
;
    }
    procBoundary0to4
    {
        type            processor;
        value           nonuniform List<scalar> 
18
(
21.1206
3.49778
3.54796
3.54732
3.54537
3.54313
3.54104
3.54039
3.54123
3.54063
3.53821
3.53452
3.52958
3.52359
3.51642
3.50825
3.49798
5.5616
)
;
    }
}


// ************************************************************************* //
