/*--------------------------------*- C++ -*----------------------------------*\
| =========                 |                                                 |
| \\      /  F ield         | OpenFOAM: The Open Source CFD Toolbox           |
|  \\    /   O peration     | Version:  2306                                  |
|   \\  /    A nd           | Website:  www.openfoam.com                      |
|    \\/     M anipulation  |                                                 |
\*---------------------------------------------------------------------------*/
FoamFile
{
    version     2.0;
    format      ascii;
    arch        "LSB;label=32;scalar=64";
    class       volScalarField;
    location    "0.02";
    object      T;
}
// * * * * * * * * * * * * * * * * * * * * * * * * * * * * * * * * * * * * * //

dimensions      [0 0 0 1 0 0 0];

internalField   nonuniform List<scalar> 
306
(
612.647
605.271
834.586
839.305
848.278
853.967
849.371
844.746
841.147
841.517
840.493
842.272
844.342
845.62
846.3
846.68
846.976
847.273
847.577
553.901
555.586
558.643
554.428
553.794
552.736
551.756
550.997
550.338
549.803
549.332
548.976
548.7
548.408
548.002
546.765
548.776
551.299
553.456
552.78
550.667
548.102
547.565
547.475
547.814
548.429
548.928
548.788
548.949
549.485
549.6
549.458
551.374
551.11
551.083
551.391
551.364
551.349
551.376
551.089
551.111
551.196
551.399
551.489
551.424
551.593
551.607
551.577
551.575
551.404
551.094
551.141
549.819
550.347
550.777
550.677
550.19
549.615
549.029
549.239
548.702
548.532
548.466
548.961
549.501
550.075
550.578
551.004
551.311
551.459
551.408
551.178
550.93
550.798
550.76
550.792
550.925
550.906
550.982
551.08
550.803
550.694
550.667
550.528
550.501
550.624
550.355
550.325
550.451
550.498
550.257
550.163
550.134
550.367
550.674
550.967
551.181
551.324
551.544
551.901
551.91
551.467
551.201
550.944
550.599
550.26
550.652
550.993
551.28
551.802
551.549
551.217
551.925
552.202
552.353
552.362
552.294
552.663
552.829
552.94
553.247
553.07
552.799
552.863
552.776
552.533
553.013
553.262
553.292
553.654
553.681
553.304
553.41
553.931
554.28
553.355
552.963
552.658
553.086
554.931
554.236
553.592
552.647
552.712
552.843
552.641
552.212
551.578
550.851
550.32
550.012
550.051
550.243
550.564
550.881
551.13
551.207
551.102
550.835
550.903
550.804
550.421
550.528
550.496
550.326
550.617
550.844
550.469
550.01
549.481
549.432
549.899
550.292
550.048
549.703
549.289
549.033
549.444
549.788
550.047
550.173
550.169
550.099
549.882
549.863
549.865
549.798
549.916
550.07
550.492
550.202
549.992
549.809
549.654
549.783
549.586
549.287
548.884
548.743
549.139
549.432
549.591
549.331
548.966
548.596
548.309
548.459
548.609
548.85
548.964
548.993
548.517
548.438
548.137
547.822
547.659
547.515
547.959
548.561
549.096
549.423
549.73
549.971
550.234
550.49
550.815
551.179
551.794
551.42
551.059
551.388
551.763
552.178
552.322
551.832
551.427
551.096
551.082
550.786
550.537
550.327
550.064
550.464
550.644
550.836
550.89
550.802
550.772
549.893
550.092
550.325
550.652
551.061
551.531
552.126
551.875
551.152
550.549
550.03
549.555
549.15
548.81
548.665
549.813
550.853
550.395
549.811
549.508
550.244
550.831
549.832
548.641
621.056
620.844
620.421
619.98
619.05
617.785
616.691
615.065
613.823
613.903
613.517
615.969
620.279
623.616
621.022
)
;

boundaryField
{
    bottom
    {
        type            symmetryPlane;
    }
    inlet1
    {
        type            fixedValue;
        value           uniform 300;
    }
    outlet1
    {
        type            zeroGradient;
    }
    top
    {
        type            zeroGradient;
    }
    wall1
    {
        type            zeroGradient;
    }
    bottomEmptyFaces
    {
        type            empty;
    }
    topEmptyFaces
    {
        type            empty;
    }
    procBoundary0to1
    {
        type            processor;
        value           nonuniform List<scalar> 
17
(
552.696
551.33
551.166
551.138
551.176
551.235
551.266
551.287
551.337
551.496
551.787
552.103
552.379
552.49
552.507
552.416
552.162
)
;
    }
    procBoundary0to4
    {
        type            processor;
        value           nonuniform List<scalar> 
18
(
847.764
549.212
551.627
551.624
551.552
551.446
551.351
551.343
551.439
551.435
551.315
551.11
550.843
550.517
550.091
549.582
549.028
620.989
)
;
    }
}


// ************************************************************************* //
