/*--------------------------------*- C++ -*----------------------------------*\
| =========                 |                                                 |
| \\      /  F ield         | OpenFOAM: The Open Source CFD Toolbox           |
|  \\    /   O peration     | Version:  2306                                  |
|   \\  /    A nd           | Website:  www.openfoam.com                      |
|    \\/     M anipulation  |                                                 |
\*---------------------------------------------------------------------------*/
FoamFile
{
    version     2.0;
    format      ascii;
    arch        "LSB;label=32;scalar=64";
    class       volVectorField;
    location    "0.02";
    object      U;
}
// * * * * * * * * * * * * * * * * * * * * * * * * * * * * * * * * * * * * * //

dimensions      [0 1 -1 0 0 0 0];

internalField   nonuniform List<vector> 
306
(
(19.4894 7.28268 0)
(19.6516 -0.00325221 0)
(-539.301 -0.0260725 0)
(-544.426 11.2489 0)
(-517.903 3.47644 0)
(-534.684 -4.49462 0)
(-520.112 -8.45489 0)
(-538.937 -12.0892 0)
(-534.755 -5.84014 0)
(-539.916 -2.25564 0)
(-534.983 2.67475 0)
(-533.861 5.35781 0)
(-531.925 6.48385 0)
(-531.611 6.64237 0)
(-531.416 7.12106 0)
(-531.101 7.30155 0)
(-530.768 7.87025 0)
(-530.304 8.01214 0)
(-529.901 8.54493 0)
(229.176 27.2269 0)
(224.741 21.8067 0)
(211.994 15.4767 0)
(215.895 4.55648 0)
(225.537 2.69567 0)
(230.423 1.17762 0)
(234.436 1.02956 0)
(237.318 0.679621 0)
(239.499 0.530837 0)
(241.098 0.32655 0)
(242.194 0.0956939 0)
(242.652 -0.40323 0)
(241.878 -1.32669 0)
(240.114 -2.36379 0)
(236.785 -3.26493 0)
(231.569 -0.1198 0)
(242.981 -3.53209 0)
(249.986 -3.86985 0)
(252.418 -2.60558 0)
(250.214 -1.55665 0)
(243.377 -3.1591 0)
(237.369 -2.92843 0)
(235.836 0.0951287 0)
(237.396 2.50481 0)
(240.924 3.87273 0)
(244.443 5.81764 0)
(246.21 8.42175 0)
(245.568 10.3567 0)
(244.945 9.53149 0)
(245.472 7.95531 0)
(246.135 6.85504 0)
(246.756 6.28629 0)
(240.205 24.7723 0)
(239.187 24.8543 0)
(239.209 23.3883 0)
(240.233 23.2727 0)
(240.898 19.5203 0)
(240.472 20.6003 0)
(240.321 21.8542 0)
(239.376 21.9305 0)
(239.724 20.5894 0)
(240.347 19.3554 0)
(241.384 18.2121 0)
(241.764 18.5987 0)
(244.791 16.5593 0)
(243.917 17.1575 0)
(242.869 17.8279 0)
(242.551 17.2481 0)
(243.577 16.395 0)
(244.414 15.6278 0)
(245.11 14.8393 0)
(245.57 15.8824 0)
(247.209 12.7015 0)
(246.794 13.6556 0)
(246.263 14.8756 0)
(245.694 13.8641 0)
(246.16 12.8151 0)
(246.549 12.0252 0)
(246.629 11.6606 0)
(247.241 12.1714 0)
(247.819 11.3783 0)
(247.166 11.1455 0)
(247.037 10.7984 0)
(246.283 11.0544 0)
(246.093 11.299 0)
(245.712 11.9882 0)
(245.303 12.9481 0)
(244.744 13.9172 0)
(244.027 14.8194 0)
(243.066 15.7644 0)
(241.892 16.8601 0)
(240.56 18.0589 0)
(239.332 19.3321 0)
(238.549 20.6542 0)
(238.111 22.0006 0)
(237.929 23.3338 0)
(238.019 24.5522 0)
(236.388 23.9129 0)
(234.011 23.1512 0)
(231.226 22.4223 0)
(231.174 21.3439 0)
(233.976 22.1373 0)
(236.294 22.8922 0)
(236.429 21.7699 0)
(236.906 20.4983 0)
(237.783 19.1279 0)
(235.405 18.7232 0)
(234.538 20.0097 0)
(234.1 21.1176 0)
(231.233 20.3345 0)
(231.538 19.3153 0)
(232.29 18.1476 0)
(229.277 17.2816 0)
(228.807 18.4482 0)
(228.666 19.5805 0)
(228.747 20.7597 0)
(228.899 22.0059 0)
(227.704 21.8977 0)
(227.276 22.2835 0)
(227.717 22.8549 0)
(227.204 20.9866 0)
(226.985 20.613 0)
(227.462 20.4578 0)
(227.207 19.1553 0)
(227.087 17.9149 0)
(227.251 16.6834 0)
(226.441 16.0161 0)
(226.48 17.4792 0)
(226.745 19.01 0)
(226.896 19.0909 0)
(226.593 17.2653 0)
(226.638 15.5133 0)
(228.198 15.3088 0)
(228.056 17.2263 0)
(228.28 19.2289 0)
(228.699 21.2631 0)
(229.273 23.2607 0)
(231.007 23.7142 0)
(231.563 24.1613 0)
(230.804 24.75 0)
(230.832 21.9917 0)
(231.536 21.8415 0)
(230.71 21.5579 0)
(230.173 19.271 0)
(230.368 16.7841 0)
(230.665 14.4444 0)
(232.651 13.5685 0)
(231.901 16.4181 0)
(230.925 19.2902 0)
(229.96 18.8709 0)
(231.462 14.8948 0)
(232.713 11.3835 0)
(230.664 9.09382 0)
(228.082 13.1424 0)
(225.443 18.6662 0)
(228.255 21.5964 0)
(229.057 24.9795 0)
(228.134 27.0015 0)
(225.153 23.2369 0)
(218.419 20.0106 0)
(222.136 10.1508 0)
(227.799 6.72419 0)
(231.503 4.21184 0)
(234.039 6.58111 0)
(235.538 9.18469 0)
(234.635 11.4289 0)
(231.805 12.4342 0)
(228.739 13.5279 0)
(226.92 13.8732 0)
(226.718 14.6141 0)
(227.733 15.3937 0)
(230.17 15.96 0)
(233.496 16.7193 0)
(236.78 17.3009 0)
(239.155 17.7258 0)
(240.658 16.3676 0)
(241.977 15.0855 0)
(243.078 13.9589 0)
(241.195 13.1765 0)
(239.869 14.4453 0)
(238.378 15.8484 0)
(235.081 15.1472 0)
(236.7 13.5926 0)
(238.264 12.1894 0)
(239.623 10.9593 0)
(242.269 12.0615 0)
(243.916 12.9664 0)
(244.597 12.017 0)
(245.128 11.123 0)
(245.652 10.4961 0)
(244.83 9.48748 0)
(244.023 10.165 0)
(243.204 11.0645 0)
(240.861 9.88598 0)
(242.035 8.9492 0)
(243.229 8.20701 0)
(240.171 7.05091 0)
(238.696 7.81622 0)
(237.377 8.70504 0)
(236.04 9.77046 0)
(234.594 11.1204 0)
(233.002 12.7078 0)
(231.464 14.3978 0)
(228.662 13.9582 0)
(229.889 12.376 0)
(231.284 10.7621 0)
(229.547 10.1909 0)
(228.365 11.6866 0)
(227.402 13.1849 0)
(227.509 12.3292 0)
(228.354 10.8425 0)
(229.432 9.42512 0)
(230.578 8.11026 0)
(230.735 8.75127 0)
(232.613 9.1605 0)
(233.883 7.72514 0)
(235.098 6.46819 0)
(236.48 5.40597 0)
(233.802 4.93385 0)
(232.838 6.15384 0)
(231.855 7.41588 0)
(231.635 6.84837 0)
(232.539 5.65108 0)
(233.298 4.35103 0)
(233.803 2.93138 0)
(234.64 3.76251 0)
(237.925 4.46772 0)
(241.657 6.2764 0)
(244.355 7.67993 0)
(245.607 9.10181 0)
(246.146 10.2802 0)
(247.182 10.2053 0)
(247.018 9.06345 0)
(246.309 7.78574 0)
(244.194 6.06966 0)
(240.638 4.28916 0)
(236.967 3.17986 0)
(235.267 1.57559 0)
(237.158 1.1845 0)
(235.854 2.7992 0)
(235.307 4.18146 0)
(234.451 5.341 0)
(233.493 6.49541 0)
(232.507 7.79299 0)
(231.378 9.05619 0)
(230.391 10.467 0)
(229.45 11.9052 0)
(232.867 10.666 0)
(234.377 9.36722 0)
(235.666 8.08078 0)
(240.073 6.89344 0)
(238.31 8.14248 0)
(236.228 9.44471 0)
(237.742 7.42204 0)
(240.125 6.2049 0)
(242.219 5.20186 0)
(244.241 4.32907 0)
(241.998 6.00965 0)
(237.168 7.09407 0)
(238.457 6.04133 0)
(239.752 5.10496 0)
(240.988 4.01872 0)
(247.442 3.2719 0)
(245.603 4.28857 0)
(243.802 5.13423 0)
(246.165 3.49154 0)
(247.975 2.57668 0)
(249.792 1.54522 0)
(248.096 -0.793782 0)
(246.587 0.345319 0)
(245.181 1.359 0)
(243.559 2.21936 0)
(241.74 3.07536 0)
(239.538 3.91003 0)
(237.046 5.11802 0)
(235.261 3.21696 0)
(237.95 2.34626 0)
(240.152 1.85694 0)
(241.807 1.34933 0)
(243.087 0.848923 0)
(243.944 0.265551 0)
(244.333 -0.572021 0)
(244.209 -1.72531 0)
(249.48 -2.01699 0)
(251.263 0.188954 0)
(248.913 1.72598 0)
(242.01 2.61418 0)
(243.814 1.10236 0)
(250.529 -0.0386278 0)
(252.759 -1.12053 0)
(250.638 -2.92195 0)
(243.761 -2.92733 0)
(30.1547 10.8867 0)
(29.7119 9.61688 0)
(28.9885 8.64746 0)
(28.5354 7.26117 0)
(27.5603 6.5941 0)
(26.5865 7.3349 0)
(25.8413 7.37905 0)
(24.3497 5.56519 0)
(23.1836 2.18068 0)
(21.5059 -3.59912 0)
(22.8963 -8.58673 0)
(22.5405 -13.9075 0)
(28.0348 -11.9922 0)
(25.0153 -10.1846 0)
(28.5319 -2.79531 0)
)
;

boundaryField
{
    bottom
    {
        type            symmetryPlane;
    }
    inlet1
    {
        type            fixedValue;
        value           uniform (754.6 0 0);
    }
    outlet1
    {
        type            zeroGradient;
    }
    top
    {
        type            zeroGradient;
    }
    wall1
    {
        type            slip;
    }
    bottomEmptyFaces
    {
        type            empty;
    }
    topEmptyFaces
    {
        type            empty;
    }
    procBoundary0to1
    {
        type            processor;
        value           nonuniform List<vector> 
17
(
(232.5 29.443 0)
(240.239 26.243 0)
(239.265 26.1725 0)
(238.312 25.634 0)
(236.585 24.9356 0)
(234.069 24.229 0)
(231.276 23.6225 0)
(229.044 23.378 0)
(227.904 23.4312 0)
(227.642 23.9693 0)
(228.119 24.696 0)
(229.657 25.1139 0)
(231.323 25.6787 0)
(232.019 26.098 0)
(231.784 26.704 0)
(231.135 27.4306 0)
(231.21 29.2559 0)
)
;
    }
    procBoundary0to4
    {
        type            processor;
        value           nonuniform List<vector> 
18
(
(-529.458 8.52754 0)
(247.395 6.42843 0)
(240.94 24.5938 0)
(240.888 23.134 0)
(240.789 21.7624 0)
(240.755 20.629 0)
(240.968 19.7707 0)
(241.656 19.131 0)
(242.708 18.6527 0)
(243.783 18.1689 0)
(244.715 17.6104 0)
(245.561 16.889 0)
(246.344 15.8002 0)
(247.02 14.4399 0)
(247.653 13.3641 0)
(247.892 12.6558 0)
(248.648 11.8038 0)
(30.3648 11.5301 0)
)
;
    }
}


// ************************************************************************* //
