/*--------------------------------*- C++ -*----------------------------------*\
| =========                 |                                                 |
| \\      /  F ield         | OpenFOAM: The Open Source CFD Toolbox           |
|  \\    /   O peration     | Version:  2306                                  |
|   \\  /    A nd           | Website:  www.openfoam.com                      |
|    \\/     M anipulation  |                                                 |
\*---------------------------------------------------------------------------*/
FoamFile
{
    version     2.0;
    format      ascii;
    arch        "LSB;label=32;scalar=64";
    class       volScalarField;
    location    "0.01";
    object      p;
}
// * * * * * * * * * * * * * * * * * * * * * * * * * * * * * * * * * * * * * //

dimensions      [1 -1 -2 0 0 0 0];

internalField   nonuniform List<scalar> 
226
(
5.13952e+06
5.13291e+06
5.12265e+06
5.13103e+06
5.1064e+06
5.16026e+06
5.04688e+06
5.16639e+06
4.88461e+06
5.1746e+06
4.88292e+06
5.24537e+06
5.09911e+06
905043
536105
547530
554295
556176
556174
554092
550888
549657
550250
551846
554854
557549
558173
557862
556771
557909
555658
553026
550681
548969
548529
548448
550890
552985
556261
555558
548423
551842
553937
555512
555635
553980
551286
550044
550641
552040
554647
556994
557767
557690
556810
556332
557304
557422
556804
556871
557289
556974
555799
553798
554327
554994
556289
557119
557309
557969
556991
555458
554424
556167
558202
557625
555202
554073
554041
555369
556892
558850
557998
556234
554763
554750
555812
558009
558342
556701
556091
557626
557810
558779
559880
559644
559712
560188
560766
561812
561915
561849
561708
561344
560723
559956
559568
559671
559780
559674
559490
558235
557005
556010
555206
553168
551563
550666
551479
553769
555503
555700
553721
553298
551909
550753
551720
553252
554630
556180
554773
553074
555068
556690
557744
559712
559033
557467
555296
553363
551641
551513
552264
552672
551182
551309
551827
553211
551337
549895
548990
550937
552322
553308
554729
553593
552045
550641
549472
547517
547289
548669
550296
552453
554666
556996
559113
560167
560484
560532
560434
559516
559230
560018
560183
559843
559629
558845
557465
557818
557811
555694
553411
550907
551474
553847
555991
555699
553752
551884
552898
553901
555511
557220
558620
559482
559857
559968
559134
558183
557023
555698
554537
554363
555348
553489
551278
549599
548782
547396
548782
551044
553539
555541
958390
976023
986061
972152
973035
965772
973555
978163
983300
984053
982654
981331
)
;

boundaryField
{
    bottom
    {
        type            symmetryPlane;
    }
    inlet1
    {
        type            fixedValue;
        value           uniform 101325;
    }
    outlet1
    {
        type            zeroGradient;
    }
    top
    {
        type            zeroGradient;
    }
    wall1
    {
        type            zeroGradient;
    }
    bottomEmptyFaces
    {
        type            empty;
    }
    topEmptyFaces
    {
        type            empty;
    }
    procBoundary4to0
    {
        type            processor;
        value           nonuniform List<scalar> 
18
(
5.14939e+06
559631
562570
562955
563479
563549
563130
562273
561139
559902
558631
557330
556097
555350
555786
556900
557136
980152
)
;
    }
    procBoundary4to5
    {
        type            processor;
        value           nonuniform List<scalar> 
14
(
554699
555065
554782
554525
554351
554156
553988
554595
554595
556795
558314
560020
561148
561776
)
;
    }
}


// ************************************************************************* //
