/*--------------------------------*- C++ -*----------------------------------*\
| =========                 |                                                 |
| \\      /  F ield         | OpenFOAM: The Open Source CFD Toolbox           |
|  \\    /   O peration     | Version:  2306                                  |
|   \\  /    A nd           | Website:  www.openfoam.com                      |
|    \\/     M anipulation  |                                                 |
\*---------------------------------------------------------------------------*/
FoamFile
{
    version     2.0;
    format      ascii;
    arch        "LSB;label=32;scalar=64";
    class       volScalarField;
    location    "0.01";
    object      rho;
}
// * * * * * * * * * * * * * * * * * * * * * * * * * * * * * * * * * * * * * //

dimensions      [1 -3 0 0 0 0 0];

internalField   nonuniform List<scalar> 
226
(
21.1229
21.0897
21.0573
21.1217
21.0551
21.269
20.8186
21.221
19.9554
21.009
19.9517
21.6369
21.1405
5.21098
3.42588
3.47477
3.50127
3.50883
3.50854
3.49835
3.48287
3.47653
3.47867
3.48558
3.49914
3.5112
3.51386
3.51234
3.50726
3.52626
3.51398
3.502
3.49288
3.48611
3.48333
3.48035
3.48057
3.47566
3.48682
3.49687
3.47858
3.49007
3.49618
3.50277
3.50339
3.49573
3.48317
3.4773
3.47978
3.48605
3.49793
3.5085
3.51192
3.51152
3.5075
3.50592
3.51011
3.51052
3.5076
3.50877
3.51103
3.50997
3.50508
3.50378
3.5039
3.504
3.5095
3.51273
3.51322
3.51964
3.51549
3.50884
3.50664
3.51462
3.52382
3.52293
3.51191
3.50672
3.50658
3.51425
3.52224
3.53194
3.52798
3.51923
3.51144
3.51129
3.51596
3.5258
3.52846
3.52119
3.51854
3.52618
3.52693
3.53118
3.53691
3.536
3.53646
3.53885
3.5417
3.54774
3.54802
3.54745
3.54656
3.54472
3.54175
3.53709
3.53456
3.53438
3.53386
3.5322
3.52956
3.52071
3.51147
3.50454
3.50023
3.49064
3.48286
3.47843
3.48189
3.49179
3.4991
3.4997
3.48962
3.4887
3.48325
3.4786
3.48356
3.49125
3.498
3.50753
3.50097
3.49279
3.50586
3.51339
3.51831
3.53048
3.5274
3.52036
3.5105
3.49774
3.48545
3.48436
3.48702
3.48778
3.48687
3.48759
3.4903
3.50093
3.4924
3.48624
3.48267
3.48561
3.485
3.48661
3.49517
3.49007
3.47964
3.47631
3.47884
3.47623
3.47812
3.4841
3.49096
3.50045
3.51032
3.52071
3.53003
3.53461
3.53594
3.53736
3.537
3.53298
3.53226
3.53584
3.53663
3.53567
3.53462
3.53098
3.52466
3.52589
3.52546
3.5161
3.50594
3.49483
3.49744
3.50804
3.51768
3.51661
3.50775
3.49913
3.50399
3.50879
3.51629
3.52422
3.53074
3.53475
3.53646
3.53817
3.53424
3.52979
3.52436
3.51818
3.51275
3.51187
3.51618
3.50637
3.49614
3.48907
3.48556
3.47944
3.48536
3.49491
3.50626
3.51678
5.43875
5.45927
5.48794
5.43212
5.47143
5.45234
5.49034
5.51049
5.52949
5.52879
5.52317
5.52052
)
;

boundaryField
{
    bottom
    {
        type            symmetryPlane;
    }
    inlet1
    {
        type            calculated;
        value           uniform 1.17641;
    }
    outlet1
    {
        type            calculated;
        value           nonuniform List<scalar> 0();
    }
    top
    {
        type            calculated;
        value           nonuniform List<scalar> 
17
(
5.21098
3.42588
3.47477
3.50127
3.50883
3.50854
3.49835
3.48287
3.47653
3.47867
3.48558
3.49914
3.5112
3.51386
3.51234
3.50726
21.1405
)
;
    }
    wall1
    {
        type            calculated;
        value           nonuniform List<scalar> 0();
    }
    bottomEmptyFaces
    {
        type            empty;
    }
    topEmptyFaces
    {
        type            empty;
    }
    procBoundary4to0
    {
        type            processor;
        value           nonuniform List<scalar> 
18
(
21.1709
3.53687
3.5528
3.55434
3.55646
3.55662
3.55452
3.55045
3.54514
3.5393
3.53339
3.52739
3.52176
3.51835
3.52038
3.52542
3.52629
5.51924
)
;
    }
    procBoundary4to5
    {
        type            processor;
        value           nonuniform List<scalar> 
14
(
3.49773
3.49959
3.49909
3.49958
3.50129
3.50322
3.50472
3.50919
3.50919
3.52077
3.52865
3.53735
3.54359
3.54773
)
;
    }
}


// ************************************************************************* //
