/*--------------------------------*- C++ -*----------------------------------*\
| =========                 |                                                 |
| \\      /  F ield         | OpenFOAM: The Open Source CFD Toolbox           |
|  \\    /   O peration     | Version:  2306                                  |
|   \\  /    A nd           | Website:  www.openfoam.com                      |
|    \\/     M anipulation  |                                                 |
\*---------------------------------------------------------------------------*/
FoamFile
{
    version     2.0;
    format      ascii;
    arch        "LSB;label=32;scalar=64";
    class       volScalarField;
    location    "0.01";
    object      T;
}
// * * * * * * * * * * * * * * * * * * * * * * * * * * * * * * * * * * * * * //

dimensions      [0 0 0 1 0 0 0];

internalField   nonuniform List<scalar> 
226
(
847.486
847.73
847.337
846.134
844.739
845.059
844.375
847.98
852.578
857.897
852.438
844.394
840.124
604.943
545.056
548.84
551.416
552.096
552.139
551.675
550.922
550.693
550.949
551.45
552.308
553.085
553.285
553.216
552.933
551.078
550.772
550.04
549.136
548.492
548.49
548.879
551.289
554.166
555.664
553.368
549.132
550.738
551.863
552.389
552.415
551.977
551.273
550.958
551.163
551.57
552.294
552.959
553.187
553.173
552.935
552.709
553.013
553.065
552.913
552.795
552.853
552.708
552.311
550.526
551.033
551.682
552.101
552.417
552.529
552.174
551.856
551.381
550.699
551.177
551.748
551.318
550.645
550.338
550.329
550.443
550.701
551.119
550.897
550.52
550.284
550.293
550.615
551.248
551.162
550.676
550.487
550.81
550.876
551.169
551.36
551.269
551.265
551.361
551.486
551.573
551.631
551.654
551.656
551.583
551.434
551.407
551.419
551.549
551.737
551.891
552.123
552.269
552.502
552.607
552.487
551.97
551.598
551.403
551.669
552.389
552.961
553.061
552.684
552.407
551.883
551.462
551.645
551.957
552.265
552.303
551.938
551.536
551.463
551.888
552.16
552.198
552.01
551.565
550.959
551.045
551.266
551.311
551.64
551.929
550.584
550.597
550.686
550.39
549.865
549.397
549.054
550.537
552.017
552.749
552.81
552.484
552.591
551.714
550.143
548.597
548.07
548.509
549.054
549.711
550.364
551.043
551.677
552.001
552.107
551.931
551.891
551.615
551.444
551.662
551.701
551.517
551.47
551.264
550.889
551.046
551.106
550.476
549.803
549.055
549.21
549.907
550.522
550.402
549.859
549.354
549.6
549.843
550.265
550.716
551.08
551.304
551.407
551.25
551.041
550.798
550.5
550.155
549.853
549.819
550.121
549.813
549.219
548.655
548.392
547.969
548.423
549.179
549.881
550.218
613.771
622.715
625.833
623.345
619.429
616.958
617.625
618.28
619.391
619.943
619.693
619.155
)
;

boundaryField
{
    bottom
    {
        type            symmetryPlane;
    }
    inlet1
    {
        type            fixedValue;
        value           uniform 300;
    }
    outlet1
    {
        type            zeroGradient;
    }
    top
    {
        type            zeroGradient;
    }
    wall1
    {
        type            zeroGradient;
    }
    bottomEmptyFaces
    {
        type            empty;
    }
    topEmptyFaces
    {
        type            empty;
    }
    procBoundary4to0
    {
        type            processor;
        value           nonuniform List<scalar> 
18
(
847.191
551.121
551.531
551.67
551.854
551.897
551.812
551.605
551.316
551.008
550.677
550.33
549.99
549.783
549.898
550.213
550.309
618.555
)
;
    }
    procBoundary4to5
    {
        type            processor;
        value           nonuniform List<scalar> 
14
(
552.375
552.447
552.244
551.91
551.468
550.971
550.568
550.469
550.469
550.835
551.104
551.429
551.566
551.539
)
;
    }
}


// ************************************************************************* //
