/*--------------------------------*- C++ -*----------------------------------*\
| =========                 |                                                 |
| \\      /  F ield         | OpenFOAM: The Open Source CFD Toolbox           |
|  \\    /   O peration     | Version:  2306                                  |
|   \\  /    A nd           | Website:  www.openfoam.com                      |
|    \\/     M anipulation  |                                                 |
\*---------------------------------------------------------------------------*/
FoamFile
{
    version     2.0;
    format      ascii;
    arch        "LSB;label=32;scalar=64";
    class       volVectorField;
    location    "0.01";
    object      U;
}
// * * * * * * * * * * * * * * * * * * * * * * * * * * * * * * * * * * * * * //

dimensions      [0 1 -1 0 0 0 0];

internalField   nonuniform List<vector> 
226
(
(-529.289 8.73773 0)
(-529.194 9.483 0)
(-528.921 9.38949 0)
(-530.135 10.4849 0)
(-529.747 11.2372 0)
(-533.631 15.8107 0)
(-526.7 18.459 0)
(-532.081 24.1158 0)
(-510.595 20.6292 0)
(-526.712 16.0932 0)
(-507.397 8.73509 0)
(-534.929 -0.299315 0)
(-528.912 11.4906 0)
(24.303 16.6267 0)
(244.785 13.7973 0)
(255.684 20.6104 0)
(258.48 23.2235 0)
(257.717 24.7677 0)
(255.995 25.2766 0)
(253.626 24.9483 0)
(250.817 24.2923 0)
(249.514 23.6729 0)
(249.389 23.3834 0)
(250.073 23.1495 0)
(251.713 23.1042 0)
(253.209 23.3063 0)
(253.571 23.5861 0)
(253.599 23.8138 0)
(253.284 24.1063 0)
(251.018 10.1304 0)
(251.051 11.0899 0)
(250.094 12.0352 0)
(248.07 13.4609 0)
(245.369 13.7363 0)
(244.343 15.4669 0)
(245.927 16.9228 0)
(251.347 17.4548 0)
(259.132 18.178 0)
(263.231 19.476 0)
(261.656 20.9258 0)
(254.868 19.7801 0)
(260.964 21.8475 0)
(261.312 23.0133 0)
(259.891 24.3526 0)
(257.636 25.0748 0)
(254.911 25.0712 0)
(251.988 24.5969 0)
(250.437 23.8821 0)
(250.087 23.3932 0)
(250.486 22.9568 0)
(251.615 22.8463 0)
(252.81 22.9481 0)
(253.093 23.3193 0)
(253.01 23.7665 0)
(252.674 24.2838 0)
(250.926 24.0035 0)
(251.513 23.3432 0)
(251.801 22.8443 0)
(251.865 22.4339 0)
(249.618 21.4372 0)
(249.195 22.0228 0)
(248.587 22.8406 0)
(247.698 23.7667 0)
(237.691 23.7944 0)
(239.798 23.49 0)
(243.494 23.6066 0)
(244.431 22.4078 0)
(245.283 21.4591 0)
(245.926 20.9036 0)
(242.229 20.2869 0)
(241.375 21.0343 0)
(240.394 22.2164 0)
(237.801 22.7697 0)
(238.637 21.5028 0)
(239.805 20.4411 0)
(238.846 21.1731 0)
(237.45 22.1241 0)
(236.805 23.0972 0)
(236.88 23.8287 0)
(237.316 24.2496 0)
(238.183 24.2661 0)
(239.413 23.9192 0)
(239.025 23.53 0)
(237.733 23.8407 0)
(236.872 23.6619 0)
(236.842 23.1961 0)
(237.47 22.6148 0)
(238.813 21.9225 0)
(239.376 22.2696 0)
(238.187 22.9519 0)
(237.696 23.4646 0)
(239.025 23.1895 0)
(239.453 22.7463 0)
(240.421 22.1493 0)
(241.419 21.9102 0)
(240.652 22.3873 0)
(240.147 22.7249 0)
(240.074 23.0247 0)
(240.298 23.5838 0)
(240.438 23.6586 0)
(240.503 22.7123 0)
(240.799 22.0692 0)
(241.319 21.5863 0)
(241.914 21.0326 0)
(242.442 20.2967 0)
(242.211 21.1193 0)
(241.37 21.2878 0)
(240.469 21.4258 0)
(239.985 21.1364 0)
(240.056 20.4276 0)
(240.762 19.7867 0)
(242.851 20.0859 0)
(246.469 20.7048 0)
(249.882 21.3053 0)
(251.496 22.2535 0)
(250.869 22.7348 0)
(250.801 23.2794 0)
(251.385 23.7387 0)
(253.021 24.0311 0)
(256.073 23.9072 0)
(259.159 23.4844 0)
(261.743 22.5289 0)
(260.525 20.6877 0)
(257.695 21.8163 0)
(254.525 22.5944 0)
(251.967 22.9011 0)
(250.716 22.7528 0)
(250.327 22.2731 0)
(250.102 21.6027 0)
(246.94 20.8327 0)
(247.372 21.1503 0)
(247.799 21.4641 0)
(243.854 21.0391 0)
(243.613 20.5301 0)
(243.298 20.1798 0)
(241.344 19.5642 0)
(241.639 19.5796 0)
(241.62 19.7945 0)
(241.477 20.0338 0)
(244.205 21.3683 0)
(248.59 21.7608 0)
(250.147 21.615 0)
(252.363 20.806 0)
(254.698 19.8445 0)
(247.615 19.7154 0)
(246.143 20.8162 0)
(244.897 21.3793 0)
(241.605 20.1141 0)
(242.084 19.9668 0)
(242.903 19.3639 0)
(243.811 18.3574 0)
(249.059 18.4377 0)
(256.702 18.855 0)
(262.518 19.72 0)
(263.464 21.0664 0)
(264.3 20.1814 0)
(263.794 19.2901 0)
(258.623 18.2225 0)
(250.937 17.7279 0)
(245.573 17.4898 0)
(243.696 16.2315 0)
(241.912 17.2865 0)
(241.326 17.8313 0)
(240.86 18.1963 0)
(240.696 18.5117 0)
(240.855 18.7754 0)
(241.114 19.0184 0)
(241.067 19.3682 0)
(240.694 19.8234 0)
(240.691 20.2591 0)
(241.147 19.422 0)
(241.34 18.6713 0)
(242.163 18.4174 0)
(241.802 19.3754 0)
(241.213 20.4136 0)
(242.129 20.2319 0)
(242.816 19.2163 0)
(243.294 18.2192 0)
(243.584 17.0777 0)
(242.353 17.4736 0)
(241.285 17.9433 0)
(241.259 17.279 0)
(241.409 16.6437 0)
(241.713 16.1268 0)
(243.28 15.1456 0)
(242.882 15.7117 0)
(242.577 16.5537 0)
(243.868 15.8635 0)
(244.186 14.8495 0)
(244.76 14.128 0)
(246.144 13.6805 0)
(245.104 14.3169 0)
(244.707 15.2348 0)
(244.364 16.4936 0)
(244.009 17.7751 0)
(243.529 18.9691 0)
(242.931 20.1052 0)
(242.933 19.3859 0)
(243.413 18.3471 0)
(243.891 17.151 0)
(244.355 15.8109 0)
(244.83 14.643 0)
(245.432 13.8696 0)
(246.843 13.3355 0)
(248.822 12.3135 0)
(247.962 12.9135 0)
(246.202 13.3952 0)
(244.145 14.7121 0)
(242.233 15.784 0)
(244.362 14.5568 0)
(246.885 13.9002 0)
(249.041 12.5094 0)
(250.42 11.6114 0)
(250.843 10.7233 0)
(24.8048 9.97345 0)
(34.978 19.9558 0)
(31.3966 25.1841 0)
(35.7344 26.4621 0)
(29.9334 27.1876 0)
(30.1505 22.6691 0)
(28.236 19.8367 0)
(29.6461 15.4627 0)
(29.9976 13.5036 0)
(30.3284 11.8616 0)
(29.5257 11.1186 0)
(28.8468 10.0711 0)
)
;

boundaryField
{
    bottom
    {
        type            symmetryPlane;
    }
    inlet1
    {
        type            fixedValue;
        value           uniform (754.6 0 0);
    }
    outlet1
    {
        type            zeroGradient;
    }
    top
    {
        type            zeroGradient;
    }
    wall1
    {
        type            slip;
    }
    bottomEmptyFaces
    {
        type            empty;
    }
    topEmptyFaces
    {
        type            empty;
    }
    procBoundary4to0
    {
        type            processor;
        value           nonuniform List<vector> 
18
(
(-529.768 8.66661 0)
(250.476 9.42224 0)
(240.077 23.8243 0)
(240.349 22.6466 0)
(240.868 21.6338 0)
(241.454 20.7895 0)
(241.989 20.0838 0)
(242.403 19.3887 0)
(242.79 18.6324 0)
(243.209 17.7574 0)
(243.631 16.6739 0)
(244.036 15.4316 0)
(244.473 14.3205 0)
(245.263 13.5034 0)
(246.871 12.8825 0)
(248.922 11.6646 0)
(250.64 10.0205 0)
(27.9243 9.79802 0)
)
;
    }
    procBoundary4to5
    {
        type            processor;
        value           nonuniform List<vector> 
14
(
(252.538 24.4168 0)
(252.03 24.8137 0)
(250.181 24.7984 0)
(246.957 24.7313 0)
(243.143 24.632 0)
(239.914 24.4628 0)
(238.046 24.628 0)
(237.341 24.4851 0)
(237.341 24.4851 0)
(238.352 24.9372 0)
(239.163 24.756 0)
(240.163 24.5022 0)
(240.664 24.5507 0)
(240.559 24.8499 0)
)
;
    }
}


// ************************************************************************* //
