/*--------------------------------*- C++ -*----------------------------------*\
| =========                 |                                                 |
| \\      /  F ield         | OpenFOAM: The Open Source CFD Toolbox           |
|  \\    /   O peration     | Version:  2306                                  |
|   \\  /    A nd           | Website:  www.openfoam.com                      |
|    \\/     M anipulation  |                                                 |
\*---------------------------------------------------------------------------*/
FoamFile
{
    version     2.0;
    format      ascii;
    arch        "LSB;label=32;scalar=64";
    class       volScalarField;
    location    "0.1";
    object      p;
}
// * * * * * * * * * * * * * * * * * * * * * * * * * * * * * * * * * * * * * //

dimensions      [1 -1 -2 0 0 0 0];

internalField   nonuniform List<scalar> 
242
(
551757
553350
555314
556068
555388
553928
551546
548620
546531
545168
544337
544198
544508
544692
543951
542321
540406
538554
536862
551865
553505
555506
556450
556030
554705
552462
549677
547663
546320
545463
545215
545360
545413
544723
543229
541442
539688
538060
538996
540442
541981
543549
544941
545818
546087
547324
546731
545589
544131
542637
541242
539990
541151
542085
543217
543812
542923
542317
543240
543588
544336
545473
545030
544564
546040
547423
548442
549585
548142
546529
546953
548688
550425
551286
549267
547378
545869
544876
544429
544378
545483
545320
545556
546467
546431
546683
547971
547797
547756
548181
547103
546381
547785
549681
551903
552464
550173
548359
549197
550811
553012
553644
551729
550421
549663
549371
549375
549357
550756
551138
551196
551434
551997
552981
554489
556671
556147
555565
554856
554034
553076
551846
550605
549045
547612
546219
546657
547528
548755
550509
552922
554887
555992
556109
555069
553266
551290
549877
548827
548061
549537
550179
551002
552258
551715
551213
552719
553076
553311
553645
552870
552016
553443
555060
556107
556046
554896
553710
554031
554690
555747
556662
556587
556391
556365
556252
555480
553649
552019
552757
554305
555828
556032
554985
553781
555203
555933
556476
557077
557141
556951
558485
558114
557453
556428
555338
554575
554247
554396
554676
554774
554330
555630
556326
556125
557763
557818
556772
557760
559111
559390
558609
556920
555556
555036
554776
555011
555427
555429
555950
557294
556336
556057
557127
557816
559115
560277
560695
560157
558556
559130
560980
561782
561590
560787
559658
558695
558314
557088
556350
555942
556030
557607
559048
559290
557260
557338
559334
559442
557726
558549
559776
)
;

boundaryField
{
    bottom
    {
        type            symmetryPlane;
    }
    inlet1
    {
        type            fixedValue;
        value           nonuniform List<scalar> 0();
    }
    outlet1
    {
        type            zeroGradient;
    }
    top
    {
        type            zeroGradient;
    }
    wall1
    {
        type            zeroGradient;
    }
    bottomEmptyFaces
    {
        type            empty;
    }
    topEmptyFaces
    {
        type            empty;
    }
    procBoundary5to1
    {
        type            processor;
        value           nonuniform List<scalar> 
18
(
551859
552850
553128
553356
553784
554490
555579
557255
559491
561497
562622
562787
562265
561396
560547
559978
559887
560587
)
;
    }
    procBoundary5to4
    {
        type            processor;
        value           nonuniform List<scalar> 
14
(
551248
551230
551356
552099
553198
554662
556624
558471
559955
559955
560962
561409
561570
561749
)
;
    }
    procBoundary5to6
    {
        type            processor;
        value           nonuniform List<scalar> 
13
(
535359
536577
543095
541834
540323
538881
537659
544384
549302
548509
547575
546599
545561
)
;
    }
}


// ************************************************************************* //
