/*--------------------------------*- C++ -*----------------------------------*\
| =========                 |                                                 |
| \\      /  F ield         | OpenFOAM: The Open Source CFD Toolbox           |
|  \\    /   O peration     | Version:  2306                                  |
|   \\  /    A nd           | Website:  www.openfoam.com                      |
|    \\/     M anipulation  |                                                 |
\*---------------------------------------------------------------------------*/
FoamFile
{
    version     2.0;
    format      ascii;
    arch        "LSB;label=32;scalar=64";
    class       volScalarField;
    location    "0.1";
    object      T;
}
// * * * * * * * * * * * * * * * * * * * * * * * * * * * * * * * * * * * * * //

dimensions      [0 0 0 1 0 0 0];

internalField   nonuniform List<scalar> 
242
(
551.515
551.959
552.511
552.726
552.538
552.121
551.432
550.574
549.951
549.545
549.299
549.256
549.336
549.387
549.182
548.726
548.18
547.638
547.127
551.517
551.976
552.534
552.789
552.654
552.251
551.588
550.775
550.182
549.778
549.516
549.435
549.471
549.483
549.281
548.844
548.315
547.786
547.283
547.178
547.639
548.121
548.607
549.039
549.316
549.41
549.387
549.183
548.82
548.366
547.901
547.461
547.059
546.996
547.31
547.674
547.499
547.205
546.986
546.974
547.111
547.363
547.723
547.883
548.095
548.55
548.977
549.302
549.271
548.831
548.342
548.179
548.706
549.229
549.257
548.648
548.073
547.606
547.285
547.119
547.076
547.185
547.17
547.274
547.326
547.281
547.309
547.431
547.432
547.459
547.627
547.553
547.553
547.994
548.574
549.243
549.213
548.52
547.96
547.969
548.48
549.153
549.069
548.47
548.043
547.773
547.637
547.588
547.515
547.527
547.721
547.81
547.942
548.162
548.501
548.988
549.664
549.831
549.922
549.929
549.881
549.792
549.66
549.59
549.507
549.502
549.461
549.608
549.883
550.254
550.775
551.488
552.087
552.459
552.184
551.828
551.275
550.675
550.237
549.912
549.663
549.679
549.895
550.17
550.159
549.963
549.789
549.931
550.054
550.143
550.265
550.364
550.499
550.942
551.436
551.781
551.341
550.986
550.629
550.39
550.586
550.904
551.186
551.531
551.906
552.308
552.577
552.399
551.907
551.469
551.446
551.831
552.21
551.852
551.61
551.329
551.254
551.416
551.53
551.325
551.359
551.331
551.461
551.351
551.164
550.862
550.542
550.326
550.216
550.242
550.302
550.32
550.175
550.37
550.596
550.556
550.864
550.853
550.511
550.582
551.012
551.129
550.946
550.649
550.406
550.282
550.232
550.312
550.305
550.276
550.395
550.609
550.368
550.315
550.42
550.574
550.896
551.179
551.254
551.063
550.562
550.418
551.001
551.281
551.263
551.084
550.82
550.603
550.538
550.436
550.426
550.468
550.605
551.054
551.46
551.426
550.845
550.728
551.307
551.162
550.651
550.642
551.028
)
;

boundaryField
{
    bottom
    {
        type            symmetryPlane;
    }
    inlet1
    {
        type            fixedValue;
        value           nonuniform List<scalar> 0();
    }
    outlet1
    {
        type            zeroGradient;
    }
    top
    {
        type            zeroGradient;
    }
    wall1
    {
        type            zeroGradient;
    }
    bottomEmptyFaces
    {
        type            empty;
    }
    topEmptyFaces
    {
        type            empty;
    }
    procBoundary5to1
    {
        type            processor;
        value           nonuniform List<scalar> 
18
(
547.427
547.79
547.953
548.094
548.285
548.55
548.923
549.458
550.148
550.78
551.174
551.268
551.169
550.972
550.792
550.697
550.711
550.954
)
;
    }
    procBoundary5to4
    {
        type            processor;
        value           nonuniform List<scalar> 
14
(
551.382
551.353
551.321
551.332
551.245
551.156
551.259
551.457
551.706
551.706
551.888
551.902
551.79
551.618
)
;
    }
    procBoundary5to6
    {
        type            processor;
        value           nonuniform List<scalar> 
13
(
546.655
546.813
546.898
546.798
546.705
546.691
546.745
547.049
547.031
547.195
547.261
547.244
547.171
)
;
    }
}


// ************************************************************************* //
