/*--------------------------------*- C++ -*----------------------------------*\
| =========                 |                                                 |
| \\      /  F ield         | OpenFOAM: The Open Source CFD Toolbox           |
|  \\    /   O peration     | Version:  2306                                  |
|   \\  /    A nd           | Website:  www.openfoam.com                      |
|    \\/     M anipulation  |                                                 |
\*---------------------------------------------------------------------------*/
FoamFile
{
    version     2.0;
    format      ascii;
    arch        "LSB;label=32;scalar=64";
    class       volVectorField;
    location    "0.1";
    object      U;
}
// * * * * * * * * * * * * * * * * * * * * * * * * * * * * * * * * * * * * * //

dimensions      [0 1 -1 0 0 0 0];

internalField   nonuniform List<vector> 
242
(
(251.019 24.1692 0)
(252.535 24.5974 0)
(254.394 25.1489 0)
(255.527 25.7357 0)
(256.083 26.2312 0)
(256.227 26.6945 0)
(255.92 27.2279 0)
(255.399 27.789 0)
(255.425 28.3616 0)
(255.99 28.9017 0)
(256.948 29.5924 0)
(258.392 30.4541 0)
(260.119 31.4857 0)
(261.747 32.6471 0)
(262.953 33.8437 0)
(263.646 34.9716 0)
(264.252 36.0496 0)
(264.97 37.0669 0)
(265.838 38.0437 0)
(250.524 24.2734 0)
(251.966 24.7341 0)
(253.744 25.3355 0)
(254.906 26.0706 0)
(255.494 26.7635 0)
(255.638 27.3802 0)
(255.353 28.0298 0)
(254.868 28.6882 0)
(254.908 29.3074 0)
(255.464 29.8414 0)
(256.378 30.4745 0)
(257.728 31.2463 0)
(259.329 32.2054 0)
(260.888 33.336 0)
(262.112 34.5899 0)
(262.884 35.8293 0)
(263.556 37.0033 0)
(264.329 38.0913 0)
(265.248 39.1052 0)
(262.821 39.5674 0)
(261.795 38.4522 0)
(260.918 37.2327 0)
(260.154 35.9131 0)
(259.364 34.554 0)
(258.285 33.2741 0)
(256.865 32.2177 0)
(253.534 32.992 0)
(254.738 34.0181 0)
(255.677 35.2412 0)
(256.512 36.5669 0)
(257.422 37.8939 0)
(258.475 39.1459 0)
(259.678 40.286 0)
(257.079 41.0854 0)
(255.644 39.9466 0)
(254.386 38.6567 0)
(252.374 39.5209 0)
(253.823 40.856 0)
(255.515 42.0633 0)
(254.79 43.0076 0)
(252.899 41.8073 0)
(251.315 40.4632 0)
(250.026 39.0316 0)
(251.202 38.0999 0)
(253.327 37.252 0)
(252.427 35.8018 0)
(251.562 34.4334 0)
(250.566 33.2877 0)
(248.659 34.0294 0)
(249.466 35.2419 0)
(250.264 36.6427 0)
(249.007 37.5639 0)
(248.219 36.115 0)
(247.537 34.8075 0)
(247.151 35.6644 0)
(247.688 37.0669 0)
(248.421 38.5448 0)
(249.482 40.0012 0)
(250.935 41.3853 0)
(252.779 42.6433 0)
(254.907 43.7617 0)
(255.181 44.4319 0)
(252.917 43.369 0)
(250.923 42.1888 0)
(251.034 42.9019 0)
(253.122 44.0078 0)
(255.402 45.0777 0)
(255.25 45.8349 0)
(253.076 44.7226 0)
(250.997 43.6249 0)
(249.229 42.5024 0)
(249.346 41.7132 0)
(249.363 40.8975 0)
(248.203 39.5033 0)
(247.412 38.0213 0)
(246.931 36.5214 0)
(246.84 37.4497 0)
(247.279 38.9908 0)
(248.11 40.414 0)
(247.89 41.2884 0)
(246.964 39.9462 0)
(246.486 38.4205 0)
(245.844 39.3837 0)
(246.429 40.8523 0)
(247.444 42.1258 0)
(248.837 43.2931 0)
(250.587 44.4056 0)
(252.568 45.5093 0)
(254.575 46.6436 0)
(253.32 47.4267 0)
(251.524 46.26 0)
(249.676 45.1817 0)
(247.993 44.0721 0)
(246.603 42.9089 0)
(245.544 41.6648 0)
(244.864 40.2593 0)
(244.662 38.5844 0)
(245.725 37.7124 0)
(246.367 36.813 0)
(246.612 35.938 0)
(246.559 35.1718 0)
(246.599 34.4734 0)
(246.787 33.7582 0)
(247.702 33.0813 0)
(249.417 32.4291 0)
(252.224 32.1824 0)
(255.405 31.3937 0)
(254.162 30.732 0)
(253.271 30.1657 0)
(252.703 29.6448 0)
(252.591 29.0109 0)
(252.992 28.2311 0)
(253.296 27.4085 0)
(253.234 26.6078 0)
(249.606 26.6409 0)
(249.636 27.5566 0)
(249.392 28.5582 0)
(249.225 29.5166 0)
(249.524 30.2373 0)
(250.155 30.8525 0)
(251.054 31.4932 0)
(248.295 31.7736 0)
(247.342 31.1863 0)
(246.586 30.594 0)
(244.648 31.084 0)
(245.587 31.7443 0)
(246.629 32.3644 0)
(245.827 32.9731 0)
(244.715 32.3224 0)
(243.653 31.6133 0)
(242.697 30.7897 0)
(243.877 30.3188 0)
(246.048 29.9044 0)
(245.872 28.912 0)
(245.955 27.7036 0)
(245.893 26.5619 0)
(242.964 26.6553 0)
(243.091 28.0652 0)
(243.332 29.3686 0)
(241.841 29.7955 0)
(241.251 28.5512 0)
(240.981 27.0947 0)
(240.752 25.6574 0)
(242.63 25.4433 0)
(245.548 25.5396 0)
(249.264 25.7808 0)
(252.795 25.7743 0)
(251.9 24.9686 0)
(250.4 24.3866 0)
(249.155 23.9764 0)
(246.535 23.9708 0)
(247.527 24.3445 0)
(248.656 24.9707 0)
(245.035 24.6051 0)
(244.186 23.8562 0)
(243.364 23.4777 0)
(240.805 23.4599 0)
(241.45 23.7793 0)
(242.132 24.4766 0)
(240.365 24.4865 0)
(239.931 23.699 0)
(239.574 23.282 0)
(239.188 23.3547 0)
(239.351 23.9336 0)
(239.504 24.8569 0)
(239.628 26.2036 0)
(239.833 27.7365 0)
(240.326 29.1084 0)
(241.113 30.2645 0)
(242.136 31.2908 0)
(243.401 32.1179 0)
(244.672 32.79 0)
(245.823 33.5262 0)
(246.029 34.067 0)
(245.061 33.1622 0)
(243.779 32.4034 0)
(244.368 32.6858 0)
(245.53 33.5602 0)
(246.269 34.6348 0)
(246.223 35.327 0)
(245.738 34.0286 0)
(244.769 32.8971 0)
(243.423 31.949 0)
(242.863 31.8981 0)
(242.319 31.6125 0)
(240.994 30.7005 0)
(239.977 29.6322 0)
(239.312 28.3886 0)
(239.42 28.9027 0)
(240.195 29.9854 0)
(241.352 31.0124 0)
(241.849 31.1323 0)
(240.574 30.2335 0)
(239.757 29.1854 0)
(239.962 29.389 0)
(240.839 30.2535 0)
(242.167 31.0718 0)
(243.596 32.0696 0)
(244.683 33.2726 0)
(245.45 34.6173 0)
(245.73 36.08 0)
(244.754 36.8006 0)
(244.665 35.1661 0)
(244.112 33.6963 0)
(243.221 32.327 0)
(242.049 31.1224 0)
(240.861 30.1376 0)
(239.955 29.2892 0)
(239.475 28.442 0)
(239.497 28.4071 0)
(239.315 28.0893 0)
(239.02 27.7116 0)
(239.105 26.9939 0)
(239.297 25.5463 0)
(239.538 24.2818 0)
(239.783 24.9084 0)
(239.15 26.2921 0)
(239.387 26.8625 0)
(240.124 25.4733 0)
(240.223 25.9383 0)
(239.484 27.2906 0)
(239.381 27.4856 0)
(239.978 26.2574 0)
)
;

boundaryField
{
    bottom
    {
        type            symmetryPlane;
    }
    inlet1
    {
        type            fixedValue;
        value           nonuniform List<vector> 0();
    }
    outlet1
    {
        type            zeroGradient;
    }
    top
    {
        type            zeroGradient;
    }
    wall1
    {
        type            slip;
    }
    bottomEmptyFaces
    {
        type            empty;
    }
    topEmptyFaces
    {
        type            empty;
    }
    procBoundary5to1
    {
        type            processor;
        value           nonuniform List<vector> 
18
(
(251.488 48.1549 0)
(249.971 46.8937 0)
(248.233 45.8063 0)
(246.615 44.723 0)
(245.247 43.5586 0)
(244.175 42.308 0)
(243.437 40.9386 0)
(243.124 39.3248 0)
(243.225 37.4706 0)
(243.321 35.6434 0)
(243.043 33.9953 0)
(242.378 32.5285 0)
(241.496 31.2011 0)
(240.506 30.0507 0)
(239.671 29.1108 0)
(239.195 28.2875 0)
(239.07 27.4444 0)
(239.467 26.3451 0)
)
;
    }
    procBoundary5to4
    {
        type            processor;
        value           nonuniform List<vector> 
14
(
(250.248 23.8426 0)
(249.797 23.8563 0)
(248.596 23.6164 0)
(246.167 23.7302 0)
(243.017 23.3573 0)
(240.454 23.4079 0)
(239.236 23.1732 0)
(238.952 23.0547 0)
(239.587 23.5066 0)
(239.587 23.5066 0)
(240.365 23.8472 0)
(241.037 24.2179 0)
(241.304 24.5608 0)
(241.084 24.8856 0)
)
;
    }
    procBoundary5to6
    {
        type            processor;
        value           nonuniform List<vector> 
13
(
(266.86 39.0196 0)
(266.311 40.0748 0)
(256.835 44.0384 0)
(257.314 43.1163 0)
(258.619 42.0866 0)
(261.008 41.2937 0)
(263.99 40.5804 0)
(257.105 44.7511 0)
(254.606 48.8122 0)
(256.222 47.9568 0)
(257.201 47.0783 0)
(257.556 46.2133 0)
(257.424 45.4554 0)
)
;
    }
}


// ************************************************************************* //
