/*--------------------------------*- C++ -*----------------------------------*\
| =========                 |                                                 |
| \\      /  F ield         | OpenFOAM: The Open Source CFD Toolbox           |
|  \\    /   O peration     | Version:  2306                                  |
|   \\  /    A nd           | Website:  www.openfoam.com                      |
|    \\/     M anipulation  |                                                 |
\*---------------------------------------------------------------------------*/
FoamFile
{
    version     2.0;
    format      ascii;
    arch        "LSB;label=32;scalar=64";
    class       volScalarField;
    location    "0.02";
    object      p;
}
// * * * * * * * * * * * * * * * * * * * * * * * * * * * * * * * * * * * * * //

dimensions      [1 -1 -2 0 0 0 0];

internalField   nonuniform List<scalar> 
247
(
463966
472477
481119
488485
497132
503841
509816
515203
520218
524127
527321
529253
529888
531087
531969
533112
534588
536192
537921
539964
542328
545183
548941
552019
555392
558451
561395
563352
506328
496721
456371
459250
445616
448047
461938
473360
470986
481805
483573
492221
490163
498875
500529
508198
507985
516367
514956
521245
524753
527687
532966
534088
534293
532660
530953
529212
527390
524786
522823
519110
513765
507807
501106
493240
484713
474613
463450
464387
465292
465344
477062
476030
475445
485399
493850
501495
502172
494398
485918
486654
495258
503312
504264
496739
487686
478837
469484
507842
513811
511596
509667
508291
507671
512981
517792
521626
521496
517780
513265
514611
519039
522569
526183
525183
525153
525978
528883
529803
532126
534318
536233
535785
535261
536585
538076
539728
540218
538673
537217
537863
539318
540742
542209
541870
547562
545617
543685
543847
545672
547666
549669
549292
549975
547864
545964
544333
542889
541582
540261
538783
536875
534436
531744
531696
528411
528604
529516
532891
532108
535413
534806
537740
540115
541795
543019
544747
543444
541413
538635
539266
536053
536227
533458
530512
527602
524358
521274
516662
519152
523540
526413
527846
525516
529520
528845
531115
533442
535747
535002
532948
531114
532945
534340
536495
537290
538425
539200
542293
542256
544677
546307
547169
545601
544052
545245
546664
548387
549225
547696
546535
547907
548834
550162
551226
550107
549335
548560
547289
545087
544536
541477
540310
539280
542564
543451
546764
547349
549462
550735
551507
552439
554019
553113
551866
549599
549285
545978
545435
542194
539608
549070
552674
552515
554613
555975
557545
555375
553843
552773
550422
560130
558102
556109
557434
554403
560215
562562
)
;

boundaryField
{
    bottom
    {
        type            symmetryPlane;
    }
    inlet1
    {
        type            fixedValue;
        value           nonuniform List<scalar> 0();
    }
    outlet1
    {
        type            zeroGradient;
    }
    top
    {
        type            zeroGradient;
    }
    wall1
    {
        type            zeroGradient;
    }
    bottomEmptyFaces
    {
        type            empty;
    }
    topEmptyFaces
    {
        type            empty;
    }
    procBoundary2to1
    {
        type            processor;
        value           nonuniform List<scalar> 
17
(
565707
564003
551432
550653
552085
551124
551934
558925
556857
555571
551934
554758
551124
552691
561487
564031
564003
)
;
    }
    procBoundary2to3
    {
        type            processor;
        value           nonuniform List<scalar> 10(452760 442752 442752 428981 431116 449228 449228 449770 450609 452536);
    }
    procBoundary2to6
    {
        type            processor;
        value           nonuniform List<scalar> 
27
(
495589
490132
533500
532761
525811
518134
518134
488483
488483
478308
468440
468440
452848
530025
530772
531884
531884
534477
539002
537263
535735
541522
541522
543455
545406
547187
548543
)
;
    }
}


// ************************************************************************* //
