/*--------------------------------*- C++ -*----------------------------------*\
| =========                 |                                                 |
| \\      /  F ield         | OpenFOAM: The Open Source CFD Toolbox           |
|  \\    /   O peration     | Version:  2306                                  |
|   \\  /    A nd           | Website:  www.openfoam.com                      |
|    \\/     M anipulation  |                                                 |
\*---------------------------------------------------------------------------*/
FoamFile
{
    version     2.0;
    format      ascii;
    arch        "LSB;label=32;scalar=64";
    class       volScalarField;
    location    "0.02";
    object      T;
}
// * * * * * * * * * * * * * * * * * * * * * * * * * * * * * * * * * * * * * //

dimensions      [0 0 0 1 0 0 0];

internalField   nonuniform List<scalar> 
247
(
518.565
521.256
523.99
526.278
528.923
530.951
532.737
534.352
535.825
536.973
537.907
538.474
538.657
538.996
539.244
539.577
540.003
540.445
540.94
541.528
542.193
542.982
544.03
544.882
545.802
546.654
547.463
547.999
533.555
530.641
517.69
518.164
513.65
514.1
518.665
522.337
521.978
525.43
525.554
528.251
527.975
530.691
530.866
533.244
533.507
536.074
535.301
537.184
538.507
539.422
541.476
541.87
541.571
541.041
540.479
539.912
539.099
538.298
537.488
536.356
534.724
532.913
530.851
528.395
525.708
522.513
518.924
519.055
519.225
519.132
522.861
522.664
522.625
525.784
528.444
530.818
530.848
528.449
525.802
525.881
528.552
531.029
531.182
528.887
526.095
523.324
520.358
532.184
533.983
533.413
532.979
532.741
532.713
534.325
535.777
536.94
536.801
535.656
534.268
534.51
535.883
536.978
538.082
537.925
538.014
538.442
539.324
539.848
540.577
541.266
541.871
542.064
542.292
542.76
543.275
543.838
543.562
543.038
542.545
542.4
542.882
543.353
543.836
544.118
546.008
545.362
544.721
544.372
544.965
545.607
546.261
546.591
545.963
545.302
544.713
544.201
543.725
543.291
542.862
542.392
541.795
541.036
540.201
540.012
539.009
538.962
539.09
540.093
540.015
540.994
540.957
541.842
542.559
543.072
543.458
543.773
543.374
542.763
541.94
541.979
541.027
540.924
540.077
539.185
538.298
537.305
536.354
534.953
535.58
536.883
537.761
538.096
537.407
538.595
538.501
539.195
539.909
540.625
540.255
539.626
539.074
539.554
539.971
540.597
540.951
541.441
541.824
542.752
542.858
543.568
544.067
544.349
544.044
543.796
544.183
544.635
545.18
545.186
544.704
544.334
544.587
544.877
545.28
545.469
545.123
544.87
544.608
544.233
543.584
543.293
542.364
541.841
541.412
542.377
542.791
543.787
544.132
544.75
545.136
545.393
545.694
545.986
545.695
545.303
544.639
544.354
543.382
543.103
542.187
541.455
544.149
545.206
545.302
545.943
546.358
546.836
546.409
546.126
545.933
545.81
547.377
546.782
546.197
546.44
545.59
547.231
547.903
)
;

boundaryField
{
    bottom
    {
        type            symmetryPlane;
    }
    inlet1
    {
        type            fixedValue;
        value           nonuniform List<scalar> 0();
    }
    outlet1
    {
        type            zeroGradient;
    }
    top
    {
        type            zeroGradient;
    }
    wall1
    {
        type            zeroGradient;
    }
    bottomEmptyFaces
    {
        type            empty;
    }
    topEmptyFaces
    {
        type            empty;
    }
    procBoundary2to1
    {
        type            processor;
        value           nonuniform List<scalar> 
17
(
548.649
548.222
546.854
547.06
546.637
545.773
545.814
547.272
546.87
546.643
545.814
546.521
545.773
546.5
547.797
548.345
548.222
)
;
    }
    procBoundary2to3
    {
        type            processor;
        value           nonuniform List<scalar> 10(514.955 513.145 513.145 508.019 508.406 514.273 514.273 514.295 514.448 514.964);
    }
    procBoundary2to6
    {
        type            processor;
        value           nonuniform List<scalar> 
27
(
530.869
529.14
542.107
541.806
539.433
537.055
537.055
528.123
528.123
524.902
521.672
521.672
516.869
540.431
540.692
541.092
541.092
542.481
544.045
543.46
542.934
544.441
544.441
545.084
545.732
546.327
546.789
)
;
    }
}


// ************************************************************************* //
