/*--------------------------------*- C++ -*----------------------------------*\
| =========                 |                                                 |
| \\      /  F ield         | OpenFOAM: The Open Source CFD Toolbox           |
|  \\    /   O peration     | Version:  2306                                  |
|   \\  /    A nd           | Website:  www.openfoam.com                      |
|    \\/     M anipulation  |                                                 |
\*---------------------------------------------------------------------------*/
FoamFile
{
    version     2.0;
    format      ascii;
    arch        "LSB;label=32;scalar=64";
    class       volVectorField;
    location    "0.02";
    object      U;
}
// * * * * * * * * * * * * * * * * * * * * * * * * * * * * * * * * * * * * * //

dimensions      [0 1 -1 0 0 0 0];

internalField   nonuniform List<vector> 
247
(
(336.835 90.9578 0)
(329.258 91.808 0)
(322.249 88.1042 0)
(315.719 86.9208 0)
(309.698 85.0851 0)
(305.618 83.057 0)
(301.142 83.9274 0)
(297.618 82.0815 0)
(293.691 81.45 0)
(290.917 79.8977 0)
(287.666 80.3988 0)
(284.316 78.5418 0)
(280.926 78.2276 0)
(277.37 77.2647 0)
(274.657 76.3497 0)
(272.411 76.564 0)
(270.023 75.1848 0)
(267.448 74.6954 0)
(265.801 73.7125 0)
(264.161 73.9046 0)
(262.594 72.883 0)
(260.93 72.4776 0)
(259.39 71.8686 0)
(258.544 71.2345 0)
(256.749 71.4736 0)
(255.234 70.4927 0)
(252.923 70.0167 0)
(251.344 68.8875 0)
(295.159 44.9743 0)
(303.759 48.3006 0)
(340.885 58.5463 0)
(341.964 62.927 0)
(354.198 66.28 0)
(352.75 71.7077 0)
(340.18 67.9926 0)
(329.374 65.3697 0)
(331.145 60.6202 0)
(320.944 57.981 0)
(319.542 62.5525 0)
(310.603 59.9527 0)
(312.097 55.6197 0)
(303.303 52.9972 0)
(301.587 57.7125 0)
(292.748 56.1684 0)
(293.536 51.0733 0)
(283.964 50.3813 0)
(284.589 55.7752 0)
(277.153 56.1123 0)
(274.725 52.4238 0)
(271.193 56.3507 0)
(267.135 57.7835 0)
(265.877 57.5556 0)
(265.028 58.1322 0)
(266.46 58.4672 0)
(267.838 58.5068 0)
(269.284 58.0302 0)
(269.813 59.2658 0)
(272.707 58.3519 0)
(274.248 60.9102 0)
(278.948 59.9755 0)
(285.442 60.2095 0)
(292.804 60.6582 0)
(300.907 62.1883 0)
(309.731 64.0426 0)
(318.666 66.7181 0)
(328.317 69.6581 0)
(338.857 72.9488 0)
(337.603 77.8825 0)
(336.393 82.318 0)
(334.601 87.118 0)
(325.787 81.8791 0)
(326.805 78.0704 0)
(327.586 73.8667 0)
(318.158 71.0089 0)
(309.698 68.1789 0)
(301.245 66.4905 0)
(302.284 70.6552 0)
(310.228 72.3345 0)
(317.979 75.3048 0)
(317.275 79.4699 0)
(310.4 76.5114 0)
(303.197 74.7635 0)
(303.33 79.1245 0)
(309.379 80.563 0)
(316.131 83.2472 0)
(323.398 85.1763 0)
(330.713 88.7994 0)
(301.966 81.1831 0)
(297.733 79.3756 0)
(297.862 76.1741 0)
(296.808 72.5175 0)
(295.361 68.5699 0)
(293.719 64.7278 0)
(286.763 64.2832 0)
(280.637 63.7471 0)
(275.842 63.9148 0)
(277.981 66.8801 0)
(282.849 67.0951 0)
(288.756 67.9772 0)
(290.698 71.9019 0)
(285.061 70.9367 0)
(280.267 70.3386 0)
(276.07 69.8624 0)
(273.945 66.4266 0)
(272.055 63.663 0)
(270.798 61.1314 0)
(268.196 61.1256 0)
(267.758 59.5414 0)
(266.002 59.3483 0)
(264.368 58.933 0)
(262.642 58.4969 0)
(263.454 57.8187 0)
(264.463 57.2353 0)
(263.037 56.7143 0)
(261.627 56.0942 0)
(260.3 55.2317 0)
(258.649 55.9655 0)
(260.215 56.7732 0)
(261.841 57.3335 0)
(260.854 57.981 0)
(259.001 57.4447 0)
(257.168 56.6893 0)
(255.396 55.7686 0)
(257.142 54.9995 0)
(253.271 51.0544 0)
(254.473 52.4838 0)
(255.762 53.8084 0)
(253.746 54.6167 0)
(252.243 53.268 0)
(250.921 51.742 0)
(249.707 50.1631 0)
(252.035 49.6601 0)
(247.369 51.0714 0)
(248.705 52.7452 0)
(250.237 54.2692 0)
(252.002 55.6025 0)
(253.964 56.7144 0)
(256.035 57.6362 0)
(258.164 58.4095 0)
(260.287 58.9986 0)
(262.255 59.6319 0)
(264.129 60.2049 0)
(266.02 60.7666 0)
(266.604 62.7388 0)
(269.091 63.2962 0)
(270.649 65.8876 0)
(272.54 69.1014 0)
(269.359 68.2944 0)
(267.816 65.257 0)
(265.4 64.3252 0)
(264.476 62.0125 0)
(262.456 61.2761 0)
(260.401 60.4634 0)
(258.067 59.7917 0)
(255.578 59.0257 0)
(255.92 60.494 0)
(258.59 61.3731 0)
(260.97 62.3364 0)
(263.14 63.4237 0)
(264.139 65.877 0)
(266.66 67.0294 0)
(267.977 69.664 0)
(270.871 71.3011 0)
(274.289 72.3327 0)
(278.028 73.1803 0)
(282.257 73.7535 0)
(287.065 74.4871 0)
(292.177 75.5856 0)
(292.895 78.5688 0)
(288.121 77.8382 0)
(283.669 76.3236 0)
(283.867 78.2911 0)
(287.557 79.7407 0)
(280.348 77.493 0)
(279.512 75.8088 0)
(275.727 74.78 0)
(272.122 73.7041 0)
(269.066 71.8721 0)
(269.732 73.4358 0)
(272.845 75.4128 0)
(276.622 76.5181 0)
(272.681 76.1249 0)
(270.009 74.6764 0)
(267.379 73.4739 0)
(266.869 72.1505 0)
(266.292 70.3735 0)
(265.259 68.3122 0)
(262.799 66.6379 0)
(261.829 64.4475 0)
(259.469 63.094 0)
(256.747 61.9843 0)
(253.829 60.9655 0)
(253.154 59.5793 0)
(253.114 58.0878 0)
(250.8 56.928 0)
(248.724 55.5682 0)
(246.894 54.0421 0)
(245.771 55.6372 0)
(247.977 57.16 0)
(250.446 58.5062 0)
(250.832 59.9637 0)
(248.033 58.7153 0)
(245.467 57.3235 0)
(245.944 58.8295 0)
(248.802 60.0865 0)
(251.845 61.2513 0)
(255.036 62.2105 0)
(257.963 63.4085 0)
(260.466 64.9688 0)
(261.376 66.7837 0)
(263.674 68.6167 0)
(264.375 70.3811 0)
(264.686 72.1695 0)
(262.757 70.0848 0)
(261.999 68.5344 0)
(259.819 66.8384 0)
(258.967 65.1788 0)
(256.425 63.5614 0)
(253.288 62.3836 0)
(250.094 61.2505 0)
(246.944 60.216 0)
(248.38 61.4332 0)
(251.652 62.4477 0)
(254.719 63.8577 0)
(257.587 65.2062 0)
(258.58 67.0286 0)
(260.479 68.6701 0)
(260.728 70.6192 0)
(262.544 71.6423 0)
(264.218 72.8651 0)
(258.812 69.304 0)
(256.417 68.261 0)
(255.94 65.7091 0)
(253.048 64.175 0)
(249.809 63.0162 0)
(246.361 61.8867 0)
(245.181 60.2264 0)
(244.067 58.8091 0)
(243.353 57.3026 0)
(245.321 52.3346 0)
(247.476 63.8872 0)
(251.002 65.054 0)
(254.192 66.2073 0)
(254.861 68.3692 0)
(256.851 69.4274 0)
(251.857 67.5203 0)
(248.207 66.492 0)
)
;

boundaryField
{
    bottom
    {
        type            symmetryPlane;
    }
    inlet1
    {
        type            fixedValue;
        value           nonuniform List<vector> 0();
    }
    outlet1
    {
        type            zeroGradient;
    }
    top
    {
        type            zeroGradient;
    }
    wall1
    {
        type            slip;
    }
    bottomEmptyFaces
    {
        type            empty;
    }
    topEmptyFaces
    {
        type            empty;
    }
    procBoundary2to1
    {
        type            processor;
        value           nonuniform List<vector> 
17
(
(248.884 69.1207 0)
(248.191 68.4842 0)
(248.512 48.6672 0)
(250.719 48.3906 0)
(246.172 49.353 0)
(243.869 53.9116 0)
(243.231 55.6564 0)
(243.305 60.2397 0)
(242.327 58.678 0)
(241.496 57.1482 0)
(243.231 55.6564 0)
(241.112 55.5229 0)
(243.869 53.9116 0)
(244.01 50.4912 0)
(243.958 62.287 0)
(244.67 64.2916 0)
(248.191 68.4842 0)
)
;
    }
    procBoundary2to3
    {
        type            processor;
        value           nonuniform List<vector> 10((345.781 95.2471 0) (353.328 61.2987 0) (353.328 61.2987 0) (368.576 67.7022 0) (367.493 73.4881 0) (351.722 77.0141 0) (351.722 77.0141 0) (350.683 82.1464 0) (349.079 86.6732 0) (346.351 90.2187 0));
    }
    procBoundary2to6
    {
        type            processor;
        value           nonuniform List<vector> 
27
(
(294.533 37.0666 0)
(300.367 43.4615 0)
(266.805 56.939 0)
(267.959 57.2412 0)
(271.043 46.813 0)
(282.111 43.3197 0)
(282.111 43.3197 0)
(311.403 51.5851 0)
(311.403 51.5851 0)
(319.797 51.8859 0)
(329.424 56.2404 0)
(329.424 56.2404 0)
(340.294 53.996 0)
(269.973 54.7426 0)
(269.174 57.3877 0)
(268.278 57.8881 0)
(268.278 57.8881 0)
(265.555 56.5455 0)
(261.876 54.3235 0)
(263.056 55.2657 0)
(264.309 55.9616 0)
(259.003 54.2471 0)
(259.003 54.2471 0)
(257.807 53.0522 0)
(256.607 51.7638 0)
(255.368 50.4291 0)
(253.957 49.1827 0)
)
;
    }
}


// ************************************************************************* //
