/*--------------------------------*- C++ -*----------------------------------*\
| =========                 |                                                 |
| \\      /  F ield         | OpenFOAM: The Open Source CFD Toolbox           |
|  \\    /   O peration     | Version:  2306                                  |
|   \\  /    A nd           | Website:  www.openfoam.com                      |
|    \\/     M anipulation  |                                                 |
\*---------------------------------------------------------------------------*/
FoamFile
{
    version     2.0;
    format      ascii;
    arch        "LSB;label=32;scalar=64";
    class       volScalarField;
    location    "0.02";
    object      p;
}
// * * * * * * * * * * * * * * * * * * * * * * * * * * * * * * * * * * * * * //

dimensions      [1 -1 -2 0 0 0 0];

internalField   nonuniform List<scalar> 
290
(
565707
567532
568897
571781
575306
581065
585981
591346
598669
585555
584392
582019
580212
579109
578360
577925
577702
577248
577496
577969
579193
581557
552640
551708
550653
551432
552832
553950
554874
553521
556373
555257
554365
555647
556332
557090
558117
557767
560705
560157
559155
559431
560744
561766
562485
561018
561800
561677
561325
563068
563577
563879
563678
561866
561983
561964
563125
562695
564126
565018
565475
565570
565262
564579
563639
562451
561117
559935
559076
558476
557971
557374
556550
555433
553950
552085
551934
551124
552691
554977
556950
558371
555916
553381
554104
556703
559477
562101
560419
558457
559486
560092
560435
562852
562557
561818
564047
565074
565396
567823
567248
565712
563211
560180
557306
554758
555571
557857
560520
561123
558879
556857
558925
560722
562589
565260
564176
563761
566762
568931
569989
571798
570118
567307
567980
571003
573172
574549
572291
569473
567418
564970
563301
561487
564031
565901
567733
569808
567399
565596
564003
573136
570389
571851
574604
576631
579830
578735
575164
577439
575542
582675
582938
587951
584912
582439
579694
577493
575430
574003
572248
570142
567791
565385
562891
560707
561080
561751
562872
563467
562932
562845
565094
564660
564502
564932
564581
564291
565628
566641
567183
568360
567478
566084
566101
567704
569028
569086
567538
566314
565896
566181
566808
567422
569722
568894
568016
569988
571052
571911
573932
573175
572053
571008
569131
567485
567350
567783
568991
569390
568851
568736
570390
570260
570574
571465
570415
570412
570248
569688
568619
567228
566820
565922
567779
568407
569761
569401
570646
570705
571276
571587
572570
571684
572680
573620
574570
573562
572546
572028
571956
572303
573070
574116
575081
575705
577594
576841
575928
577378
578377
579293
580908
579549
578376
577541
576541
574975
574192
573677
573590
575135
575291
575850
576930
576353
576101
576936
577129
577486
578027
578877
580067
581939
577186
577306
577109
576309
575269
573864
574676
575731
576827
575882
577001
577994
578852
577749
577930
579015
)
;

boundaryField
{
    bottom
    {
        type            symmetryPlane;
    }
    inlet1
    {
        type            fixedValue;
        value           nonuniform List<scalar> 0();
    }
    outlet1
    {
        type            zeroGradient;
    }
    top
    {
        type            zeroGradient;
    }
    wall1
    {
        type            zeroGradient;
    }
    bottomEmptyFaces
    {
        type            empty;
    }
    topEmptyFaces
    {
        type            empty;
    }
    procBoundary1to0
    {
        type            processor;
        value           nonuniform List<scalar> 
17
(
585987
561990
562340
563168
564774
566761
568651
570255
571586
572798
574055
575214
576659
577938
579515
580839
580810
)
;
    }
    procBoundary1to2
    {
        type            processor;
        value           nonuniform List<scalar> 
17
(
563352
563352
549669
549292
549975
549225
550162
557545
555375
553843
552773
552773
550422
550422
560130
562562
562562
)
;
    }
    procBoundary1to5
    {
        type            processor;
        value           nonuniform List<scalar> 
18
(
549526
550375
551278
552259
553343
554592
556073
557594
558719
559219
559333
559441
559609
559709
559911
560419
561178
561736
)
;
    }
}


// ************************************************************************* //
