/*--------------------------------*- C++ -*----------------------------------*\
| =========                 |                                                 |
| \\      /  F ield         | OpenFOAM: The Open Source CFD Toolbox           |
|  \\    /   O peration     | Version:  2306                                  |
|   \\  /    A nd           | Website:  www.openfoam.com                      |
|    \\/     M anipulation  |                                                 |
\*---------------------------------------------------------------------------*/
FoamFile
{
    version     2.0;
    format      ascii;
    arch        "LSB;label=32;scalar=64";
    class       volScalarField;
    location    "0.02";
    object      T;
}
// * * * * * * * * * * * * * * * * * * * * * * * * * * * * * * * * * * * * * //

dimensions      [0 0 0 1 0 0 0];

internalField   nonuniform List<scalar> 
290
(
548.649
549.153
549.512
550.278
551.229
552.775
554.139
555.626
557.6
554.027
553.652
553
552.509
552.203
551.985
551.851
551.774
551.628
551.688
551.808
552.094
552.696
547.784
547.439
547.06
546.854
547.338
547.733
548.07
548.116
549.157
548.767
548.437
548.37
548.655
548.959
549.317
549.622
550.635
550.43
550.082
549.748
550.188
550.546
550.802
550.769
551.15
551.058
550.905
551.015
551.214
551.351
551.336
551.212
551.33
551.284
551.232
551.166
551.138
551.329
551.407
551.395
551.261
551.019
550.704
550.306
549.863
549.476
549.171
548.92
548.686
548.431
548.126
547.741
547.244
546.637
545.814
545.773
546.5
547.202
547.816
547.95
547.219
546.458
546.47
547.242
548.054
548.818
548.559
548.295
548.641
548.88
549.048
549.388
549.252
548.992
549.394
549.723
549.851
550.359
550.166
549.704
548.976
548.1
547.266
546.521
546.643
547.313
548.088
548.143
547.478
546.87
547.272
547.826
548.397
549.18
549.028
549.021
549.882
550.516
550.845
551.244
550.736
549.926
549.971
550.847
551.497
551.699
551.014
550.19
549.584
548.865
548.352
547.797
548.345
548.895
549.44
549.853
549.171
548.666
548.222
550.79
550.204
550.636
551.419
552.03
552.666
552.357
551.384
551.876
551.33
553.308
553.349
554.676
553.813
553.221
552.67
552.342
552.008
551.78
551.402
550.909
550.367
549.865
549.431
549.195
549.372
549.629
549.995
549.769
549.553
549.467
549.807
549.718
549.713
549.877
550.123
550.45
550.877
551.207
551.41
551.3
551.013
550.584
550.237
550.702
551.098
550.828
550.396
550.036
549.898
549.957
550.122
550.281
550.813
550.601
550.363
550.851
551.127
551.337
551.791
551.619
551.342
551.079
550.616
550.208
550.168
550.298
550.634
550.669
550.518
550.497
550.928
550.9
550.986
551.224
550.944
551.028
551.16
551.308
551.407
551.458
551.383
551.176
551.235
551.378
551.345
551.266
551.287
551.296
551.266
551.337
551.496
551.278
551.542
551.787
552.103
551.814
551.522
551.366
551.323
551.375
551.529
551.77
551.992
552.118
552.412
552.261
552.061
552.202
552.436
552.632
552.857
552.524
552.231
552.032
552.022
551.857
551.718
551.648
551.658
551.809
551.812
551.896
551.903
551.791
551.754
551.737
551.755
551.834
551.974
552.202
552.518
553.014
551.669
551.727
551.864
551.905
551.929
551.785
552.055
552.379
552.49
552.176
552.179
552.507
552.416
552.084
551.878
552.162
)
;

boundaryField
{
    bottom
    {
        type            symmetryPlane;
    }
    inlet1
    {
        type            fixedValue;
        value           nonuniform List<scalar> 0();
    }
    outlet1
    {
        type            zeroGradient;
    }
    top
    {
        type            zeroGradient;
    }
    wall1
    {
        type            zeroGradient;
    }
    bottomEmptyFaces
    {
        type            empty;
    }
    topEmptyFaces
    {
        type            empty;
    }
    procBoundary1to0
    {
        type            processor;
        value           nonuniform List<scalar> 
17
(
553.901
551.374
551.11
550.925
550.906
550.982
551.08
551.181
551.324
551.544
551.901
552.294
552.663
552.829
552.94
552.963
552.658
)
;
    }
    procBoundary1to2
    {
        type            processor;
        value           nonuniform List<scalar> 
17
(
547.999
547.999
546.261
546.591
545.963
545.186
545.28
546.836
546.409
546.126
545.933
545.933
545.81
545.81
547.377
547.903
547.903
)
;
    }
    procBoundary1to5
    {
        type            processor;
        value           nonuniform List<scalar> 
18
(
547.146
547.47
547.813
548.174
548.555
548.974
549.455
549.946
550.32
550.504
550.575
550.65
550.742
550.815
550.914
551.098
551.353
551.551
)
;
    }
}


// ************************************************************************* //
