/*--------------------------------*- C++ -*----------------------------------*\
| =========                 |                                                 |
| \\      /  F ield         | OpenFOAM: The Open Source CFD Toolbox           |
|  \\    /   O peration     | Version:  2306                                  |
|   \\  /    A nd           | Website:  www.openfoam.com                      |
|    \\/     M anipulation  |                                                 |
\*---------------------------------------------------------------------------*/
FoamFile
{
    version     2.0;
    format      ascii;
    arch        "LSB;label=32;scalar=64";
    class       volVectorField;
    location    "0.02";
    object      U;
}
// * * * * * * * * * * * * * * * * * * * * * * * * * * * * * * * * * * * * * //

dimensions      [0 1 -1 0 0 0 0];

internalField   nonuniform List<vector> 
290
(
(248.884 69.1207 0)
(246.002 67.228 0)
(242.766 66.6762 0)
(239.08 65.6712 0)
(235.87 63.6006 0)
(232.148 63.217 0)
(225.771 56.0253 0)
(217.571 48.1785 0)
(210.626 38.4532 0)
(218.68 30.4299 0)
(226.375 31.9162 0)
(230.745 31.7867 0)
(233.749 31.8077 0)
(235.64 31.8159 0)
(236.717 31.811 0)
(237.173 31.7226 0)
(237.228 31.5816 0)
(237.032 31.5118 0)
(236.669 31.4857 0)
(235.819 31.0519 0)
(234.518 30.5041 0)
(232.5 29.443 0)
(248.083 46.0917 0)
(249.365 47.24 0)
(250.719 48.3906 0)
(248.512 48.6672 0)
(247.278 47.3388 0)
(246.06 46.1331 0)
(244.889 44.9506 0)
(246.9 44.902 0)
(244.109 40.6043 0)
(244.875 42.2051 0)
(245.825 43.6195 0)
(243.794 43.7053 0)
(242.802 42.3899 0)
(241.963 40.974 0)
(241.324 39.3661 0)
(243.533 38.8154 0)
(241.977 33.7789 0)
(242.555 35.2448 0)
(243.069 36.9571 0)
(240.93 37.5532 0)
(240.656 35.6985 0)
(240.413 34.0025 0)
(240.203 32.5572 0)
(241.426 32.4742 0)
(240.5 29.5232 0)
(240.708 30.3355 0)
(241 31.3098 0)
(240.066 31.2929 0)
(240.002 30.1476 0)
(239.907 29.1374 0)
(239.745 28.2077 0)
(240.377 28.6901 0)
(240.239 26.243 0)
(240.309 27.5911 0)
(239.471 27.268 0)
(239.265 26.1725 0)
(238.312 25.634 0)
(238.566 26.6313 0)
(238.656 27.6438 0)
(238.638 28.763 0)
(238.506 29.9524 0)
(238.271 31.2373 0)
(238.077 32.6964 0)
(237.967 34.386 0)
(237.988 36.2443 0)
(238.239 38.0797 0)
(238.746 39.7196 0)
(239.509 41.1726 0)
(240.453 42.5496 0)
(241.533 43.8399 0)
(242.676 45.0752 0)
(243.841 46.3463 0)
(245.004 47.7574 0)
(246.172 49.353 0)
(243.231 55.6564 0)
(243.869 53.9116 0)
(244.01 50.4912 0)
(242.843 48.6578 0)
(241.732 46.9393 0)
(239.934 48.0534 0)
(241.016 50.0307 0)
(242.31 52.0178 0)
(241.35 53.7771 0)
(239.759 51.7433 0)
(238.545 49.5481 0)
(237.471 47.4184 0)
(238.843 46.2367 0)
(240.583 45.4125 0)
(239.388 44.0356 0)
(238.184 42.7307 0)
(237.08 41.4021 0)
(235.081 41.6193 0)
(236.353 43.0542 0)
(237.648 44.5812 0)
(236.391 45.422 0)
(235.098 43.6044 0)
(233.7 41.9521 0)
(232.881 42.3296 0)
(234.28 44.2739 0)
(235.473 46.4707 0)
(236.519 48.8721 0)
(237.749 51.2572 0)
(239.181 53.5526 0)
(241.112 55.5229 0)
(241.496 57.1482 0)
(239.159 55.3075 0)
(237.35 53.0124 0)
(237.457 54.7775 0)
(239.64 57.0008 0)
(242.327 58.678 0)
(243.305 60.2397 0)
(240.265 58.7147 0)
(237.829 56.476 0)
(235.2 54.3051 0)
(235.379 52.3703 0)
(235.796 50.5212 0)
(234.752 47.7188 0)
(233.676 45.0996 0)
(232.461 42.7496 0)
(232.129 43.3031 0)
(233.086 46.1818 0)
(234.135 49.254 0)
(233.718 50.9594 0)
(232.439 47.5906 0)
(231.727 44.1325 0)
(230.893 45.0569 0)
(231.257 49.13 0)
(233.013 52.6215 0)
(234.642 56.251 0)
(237.762 58.3924 0)
(240.607 60.6509 0)
(243.958 62.287 0)
(244.67 64.2916 0)
(240.747 62.8463 0)
(237.246 60.5023 0)
(236.859 63.4001 0)
(241.184 65.4315 0)
(244.852 66.6736 0)
(248.191 68.4842 0)
(231.573 60.4506 0)
(233.231 58.2252 0)
(231.451 54.1883 0)
(229.365 50.5786 0)
(229.7 45.7029 0)
(227.485 45.2516 0)
(225.513 50.6643 0)
(228.781 54.7941 0)
(226.633 56.4477 0)
(230.559 62.5908 0)
(220.732 50.9716 0)
(223.218 43.828 0)
(217.336 39.4033 0)
(225.263 35.3909 0)
(226.687 39.017 0)
(228.465 40.7594 0)
(229.938 41.5006 0)
(230.815 41.4456 0)
(231.048 41.076 0)
(231.104 40.7621 0)
(231.223 40.6498 0)
(231.617 40.5329 0)
(232.519 40.3589 0)
(234.002 40.1838 0)
(236.158 39.9609 0)
(235.441 38.4085 0)
(234.977 36.7415 0)
(234.893 34.8924 0)
(231.99 35.3664 0)
(232.352 37.0947 0)
(233.067 38.693 0)
(231.471 38.7951 0)
(230.579 37.2646 0)
(229.963 35.6515 0)
(229.674 33.9001 0)
(232.067 33.4279 0)
(235.153 33.0171 0)
(235.581 31.2804 0)
(236.038 29.7658 0)
(236.396 28.4502 0)
(233.553 28.1028 0)
(233.081 29.6376 0)
(232.509 31.4424 0)
(229.87 31.9217 0)
(230.381 29.8552 0)
(230.87 27.9728 0)
(228.874 28.3602 0)
(228.437 30.3851 0)
(228.182 32.3135 0)
(228.341 34.0341 0)
(228.814 35.6215 0)
(229.6 37.1724 0)
(230.568 38.7915 0)
(230.179 38.7028 0)
(229.14 36.939 0)
(228.272 35.3489 0)
(228.537 35.087 0)
(229.392 36.6727 0)
(230.299 38.5359 0)
(230.639 38.5647 0)
(230.15 36.4867 0)
(229.638 34.8187 0)
(229.079 33.4677 0)
(227.852 33.6535 0)
(227.698 33.8911 0)
(227.424 32.4029 0)
(227.394 30.7179 0)
(227.735 28.8242 0)
(227.385 29.2893 0)
(227.319 30.8788 0)
(227.495 32.2612 0)
(228.69 32.2308 0)
(228.395 30.9839 0)
(228.184 29.6502 0)
(228.152 28.1645 0)
(227.586 27.4387 0)
(228.031 26.9247 0)
(229.176 26.5099 0)
(231.145 26.3753 0)
(233.835 26.7249 0)
(236.608 27.2192 0)
(236.691 26.0346 0)
(236.585 24.9356 0)
(234.069 24.229 0)
(234.024 25.4264 0)
(231.252 24.9495 0)
(231.276 23.6225 0)
(229.044 23.378 0)
(229.171 24.8747 0)
(228.075 25.0828 0)
(227.904 23.4312 0)
(227.642 23.9693 0)
(227.772 25.6721 0)
(228.255 26.4879 0)
(228.119 24.696 0)
(229.657 25.1139 0)
(229.792 26.8654 0)
(229.832 28.4729 0)
(230.052 29.8143 0)
(230.336 30.9412 0)
(230.603 31.964 0)
(230.832 33.0432 0)
(231.076 34.3799 0)
(231.031 36.1903 0)
(231 38.6023 0)
(231.142 38.4085 0)
(231.727 35.9177 0)
(232.45 34.2013 0)
(233.548 33.7596 0)
(232.255 35.2104 0)
(230.822 37.5415 0)
(230.094 35.8625 0)
(232.825 34.2812 0)
(234.401 33.2424 0)
(235.338 32.6332 0)
(234.156 32.6572 0)
(232.617 32.9372 0)
(232.58 31.962 0)
(232.336 31.053 0)
(231.988 30.0603 0)
(233.486 30.0528 0)
(234.034 30.9779 0)
(234.303 31.8025 0)
(235.652 32.0776 0)
(235.378 31.5252 0)
(234.57 30.8712 0)
(235.795 31.0181 0)
(236.637 31.6047 0)
(236.685 32.0415 0)
(236.198 32.3302 0)
(235.116 32.5938 0)
(233.222 33.0116 0)
(230.015 33.6056 0)
(236.233 31.6436 0)
(235.115 31.1373 0)
(234.518 30.1286 0)
(233.57 29.7412 0)
(232.889 28.9977 0)
(231.651 28.9097 0)
(231.431 27.453 0)
(231.323 25.6787 0)
(232.019 26.098 0)
(232.311 27.7632 0)
(232.492 28.439 0)
(231.784 26.704 0)
(231.135 27.4306 0)
(233.026 29.0208 0)
(233.491 30.4991 0)
(231.21 29.2559 0)
)
;

boundaryField
{
    bottom
    {
        type            symmetryPlane;
    }
    inlet1
    {
        type            fixedValue;
        value           nonuniform List<vector> 0();
    }
    outlet1
    {
        type            zeroGradient;
    }
    top
    {
        type            zeroGradient;
    }
    wall1
    {
        type            slip;
    }
    bottomEmptyFaces
    {
        type            empty;
    }
    topEmptyFaces
    {
        type            empty;
    }
    procBoundary1to0
    {
        type            processor;
        value           nonuniform List<vector> 
17
(
(229.176 27.2269 0)
(240.205 24.7723 0)
(239.187 24.8543 0)
(238.019 24.5522 0)
(236.388 23.9129 0)
(234.011 23.1512 0)
(231.226 22.4223 0)
(228.899 22.0059 0)
(227.704 21.8977 0)
(227.276 22.2835 0)
(227.717 22.8549 0)
(229.273 23.2607 0)
(231.007 23.7142 0)
(231.563 24.1613 0)
(230.804 24.75 0)
(229.057 24.9795 0)
(228.134 27.0015 0)
)
;
    }
    procBoundary1to2
    {
        type            processor;
        value           nonuniform List<vector> 
17
(
(251.344 68.8875 0)
(251.344 68.8875 0)
(249.707 50.1631 0)
(252.035 49.6601 0)
(247.369 51.0714 0)
(245.771 55.6372 0)
(245.467 57.3235 0)
(246.361 61.8867 0)
(245.181 60.2264 0)
(244.067 58.8091 0)
(243.353 57.3026 0)
(243.353 57.3026 0)
(245.321 52.3346 0)
(245.321 52.3346 0)
(247.476 63.8872 0)
(248.207 66.492 0)
(248.207 66.492 0)
)
;
    }
    procBoundary1to5
    {
        type            processor;
        value           nonuniform List<vector> 
18
(
(252.455 48.0105 0)
(250.988 46.8897 0)
(249.659 45.7553 0)
(248.469 44.5625 0)
(247.425 43.2417 0)
(246.53 41.7442 0)
(245.822 40.0161 0)
(245.225 38.1625 0)
(244.553 36.4036 0)
(243.711 34.8725 0)
(242.832 33.5125 0)
(242.062 32.3167 0)
(241.452 31.3135 0)
(241.009 30.497 0)
(240.725 29.7315 0)
(240.703 28.7783 0)
(240.884 27.5317 0)
(240.993 26.0891 0)
)
;
    }
}


// ************************************************************************* //
