/*--------------------------------*- C++ -*----------------------------------*\
| =========                 |                                                 |
| \\      /  F ield         | OpenFOAM: The Open Source CFD Toolbox           |
|  \\    /   O peration     | Version:  2306                                  |
|   \\  /    A nd           | Website:  www.openfoam.com                      |
|    \\/     M anipulation  |                                                 |
\*---------------------------------------------------------------------------*/
FoamFile
{
    version     2.0;
    format      ascii;
    arch        "LSB;label=32;scalar=64";
    class       volScalarField;
    location    "0.1";
    object      p;
}
// * * * * * * * * * * * * * * * * * * * * * * * * * * * * * * * * * * * * * //

dimensions      [1 -1 -2 0 0 0 0];

internalField   nonuniform List<scalar> 
226
(
5.14508e+06
5.13759e+06
5.12664e+06
5.13341e+06
5.10818e+06
5.16258e+06
5.04863e+06
5.1659e+06
4.88269e+06
5.16922e+06
4.87728e+06
5.23785e+06
5.09373e+06
915588
555032
549319
546458
544937
546041
548497
552784
557034
558583
558792
557786
555171
552325
551444
551248
556958
555921
554671
553352
551557
549403
547410
547298
549796
554461
556825
558142
552013
548017
546048
547164
549446
553229
556873
558259
558561
557505
554804
551994
551264
551230
551356
551325
552174
555165
555702
552883
551960
552099
556624
554662
553198
553027
553659
555910
555524
554384
554409
556223
555892
555601
556826
557393
558028
558471
559955
560962
561409
562554
561673
560291
560036
559050
557718
558959
560645
561574
562761
562179
560707
562106
563193
563494
562977
561570
561749
563232
563823
563766
563028
561374
560156
558612
557200
556492
556213
556158
557368
558186
558222
557928
559110
558812
557526
554349
550644
547677
545883
547424
550684
553839
556191
557674
558802
559115
559238
559129
558178
558137
558867
558639
557201
557766
557638
556756
556673
556479
553937
550724
547619
549656
552114
554544
555236
553536
551637
550062
547529
545318
545103
547328
550288
547209
544812
545810
547784
549401
551760
552945
553875
554679
555543
556025
556000
555908
555724
555336
554970
553893
554566
555678
556486
554725
553597
553331
553499
554538
554010
553649
553538
554761
554231
553567
554097
555306
555743
556683
556388
555144
554107
554432
555843
557857
559368
557489
556007
555515
556490
557530
557665
556950
556074
555305
554626
553190
551164
552643
553468
554428
555503
976743
1.00061e+06
1.01393e+06
993046
984189
967375
967932
966540
970410
973467
973714
974256
)
;

boundaryField
{
    bottom
    {
        type            symmetryPlane;
    }
    inlet1
    {
        type            fixedValue;
        value           uniform 101325;
    }
    outlet1
    {
        type            zeroGradient;
    }
    top
    {
        type            zeroGradient;
    }
    wall1
    {
        type            zeroGradient;
    }
    bottomEmptyFaces
    {
        type            empty;
    }
    topEmptyFaces
    {
        type            empty;
    }
    procBoundary4to0
    {
        type            processor;
        value           nonuniform List<scalar> 
18
(
5.1545e+06
557449
562186
563598
564172
564046
563388
562300
560787
559089
557720
557287
558096
558780
558630
557814
556499
974691
)
;
    }
    procBoundary4to5
    {
        type            processor;
        value           nonuniform List<scalar> 
14
(
551757
551865
552019
552757
553781
555203
556951
558485
558485
559048
559290
559334
559442
559776
)
;
    }
}


// ************************************************************************* //
