/*--------------------------------*- C++ -*----------------------------------*\
| =========                 |                                                 |
| \\      /  F ield         | OpenFOAM: The Open Source CFD Toolbox           |
|  \\    /   O peration     | Version:  2306                                  |
|   \\  /    A nd           | Website:  www.openfoam.com                      |
|    \\/     M anipulation  |                                                 |
\*---------------------------------------------------------------------------*/
FoamFile
{
    version     2.0;
    format      ascii;
    arch        "LSB;label=32;scalar=64";
    class       volScalarField;
    location    "0.1";
    object      rho;
}
// * * * * * * * * * * * * * * * * * * * * * * * * * * * * * * * * * * * * * //

dimensions      [1 -3 0 0 0 0 0];

internalField   nonuniform List<scalar> 
226
(
21.1482
21.1143
21.081
21.1401
21.07
21.2842
20.8271
21.2151
19.9362
20.9758
19.9187
21.6005
21.1182
5.2608
3.50679
3.48118
3.46818
3.46009
3.46282
3.47116
3.48927
3.50816
3.51508
3.51595
3.51131
3.49949
3.48679
3.48301
3.48224
3.52331
3.51632
3.50997
3.50549
3.49874
3.48786
3.47593
3.46696
3.46593
3.48212
3.50362
3.52158
3.48915
3.47058
3.46133
3.46523
3.47391
3.4903
3.5068
3.51317
3.51458
3.50988
3.49785
3.48541
3.48234
3.4823
3.4833
3.48297
3.48655
3.49977
3.50323
3.49083
3.48698
3.48793
3.51698
3.50524
3.49542
3.49428
3.49679
3.50652
3.50815
3.5033
3.5037
3.51498
3.51319
3.51167
3.51973
3.52252
3.52542
3.52739
3.53516
3.54035
3.54309
3.54819
3.54356
3.53672
3.53564
3.53129
3.5253
3.53139
3.53894
3.5431
3.54908
3.54637
3.53968
3.54687
3.55179
3.55322
3.551
3.54482
3.54706
3.55349
3.55593
3.5556
3.55221
3.54471
3.53799
3.53022
3.52347
3.51966
3.51676
3.51405
3.51615
3.51618
3.51403
3.51183
3.51675
3.51517
3.50905
3.49401
3.47657
3.46259
3.45413
3.45877
3.47488
3.49049
3.5023
3.50983
3.51545
3.51736
3.52011
3.51911
3.51418
3.51808
3.52189
3.52129
3.51868
3.52107
3.52039
3.51629
3.51102
3.50583
3.49358
3.47826
3.46313
3.4785
3.48979
3.50106
3.50932
3.5018
3.49368
3.48713
3.46874
3.45125
3.44714
3.46028
3.47335
3.45555
3.44806
3.46081
3.47729
3.48775
3.49824
3.50317
3.507
3.51032
3.51415
3.51625
3.51601
3.51549
3.51614
3.5145
3.51291
3.50851
3.51152
3.51654
3.52058
3.5125
3.50728
3.50597
3.50672
3.51107
3.5088
3.50727
3.50696
3.51235
3.50993
3.50701
3.50932
3.51459
3.51631
3.52097
3.51985
3.51447
3.50995
3.51159
3.51824
3.52752
3.53558
3.52692
3.51999
3.51763
3.52192
3.52649
3.52699
3.52355
3.51797
3.51409
3.51173
3.50568
3.49658
3.50269
3.50566
3.51037
3.51689
5.51911
5.56274
5.60485
5.51939
5.51923
5.46005
5.4682
5.46276
5.47654
5.48548
5.48634
5.49099
)
;

boundaryField
{
    bottom
    {
        type            symmetryPlane;
    }
    inlet1
    {
        type            calculated;
        value           uniform 1.17641;
    }
    outlet1
    {
        type            calculated;
        value           nonuniform List<scalar> 0();
    }
    top
    {
        type            calculated;
        value           nonuniform List<scalar> 
17
(
5.2608
3.50679
3.48118
3.46818
3.46009
3.46282
3.47116
3.48927
3.50816
3.51508
3.51595
3.51131
3.49949
3.48679
3.48301
3.48224
21.1182
)
;
    }
    wall1
    {
        type            calculated;
        value           nonuniform List<scalar> 0();
    }
    bottomEmptyFaces
    {
        type            empty;
    }
    topEmptyFaces
    {
        type            empty;
    }
    procBoundary4to0
    {
        type            processor;
        value           nonuniform List<scalar> 
18
(
21.1933
3.52845
3.55093
3.55701
3.55936
3.55864
3.55549
3.55047
3.54355
3.53583
3.52959
3.52757
3.53123
3.53433
3.53358
3.5297
3.52369
5.49632
)
;
    }
    procBoundary4to5
    {
        type            processor;
        value           nonuniform List<scalar> 
14
(
3.48462
3.48528
3.48655
3.49136
3.49857
3.50803
3.51859
3.52745
3.52745
3.53101
3.53276
3.5338
3.53541
3.53838
)
;
    }
}


// ************************************************************************* //
