/*--------------------------------*- C++ -*----------------------------------*\
| =========                 |                                                 |
| \\      /  F ield         | OpenFOAM: The Open Source CFD Toolbox           |
|  \\    /   O peration     | Version:  2306                                  |
|   \\  /    A nd           | Website:  www.openfoam.com                      |
|    \\/     M anipulation  |                                                 |
\*---------------------------------------------------------------------------*/
FoamFile
{
    version     2.0;
    format      ascii;
    arch        "LSB;label=32;scalar=64";
    class       volScalarField;
    location    "0.1";
    object      T;
}
// * * * * * * * * * * * * * * * * * * * * * * * * * * * * * * * * * * * * * //

dimensions      [0 0 0 1 0 0 0];

internalField   nonuniform List<scalar> 
226
(
847.388
847.513
847.042
845.789
844.433
844.838
844.324
848.136
853.061
858.364
852.863
844.604
840.124
606.196
551.28
549.62
548.806
548.557
549.236
550.382
551.804
553.052
553.498
553.569
553.302
552.568
551.738
551.456
551.382
550.599
550.666
550.423
549.816
549.089
548.65
548.537
549.844
552.516
554.615
553.561
552.041
551.053
549.992
549.48
549.984
550.898
552.084
553.107
553.477
553.556
553.248
552.461
551.625
551.381
551.353
551.321
551.344
551.625
552.518
552.507
551.656
551.344
551.332
551.259
551.156
551.245
551.255
551.489
552.195
551.555
551.186
551.146
551.176
551.127
551.078
551.029
551.153
551.328
551.457
551.706
551.888
551.902
552.232
552.087
551.793
551.712
551.418
551.04
551.313
551.797
552.061
552.297
552.147
551.743
551.998
552.298
552.372
552.21
551.79
551.618
552.073
552.272
552.269
552.072
551.615
551.464
551.153
550.814
550.709
550.886
551.256
552.127
552.933
553.306
553.361
553.757
553.712
553.401
552.616
551.675
550.918
550.458
551.273
551.984
552.664
553.139
553.425
553.658
553.667
553.355
553.405
553.239
552.584
552.709
552.577
551.564
551.75
551.729
551.498
552.243
552.869
552.273
551.489
550.775
550.381
551.054
551.696
551.085
550.577
549.964
549.424
549.794
550.348
550.786
550.936
551.83
551.57
550.346
549.324
548.696
548.665
549.369
549.774
550.098
550.375
550.632
550.78
550.793
550.784
550.499
550.372
550.258
549.88
550.075
550.391
550.559
550.08
549.778
549.719
549.769
550.118
549.95
549.831
549.769
550.14
549.992
549.79
549.954
550.329
550.491
550.693
550.577
550.185
549.865
549.93
550.288
550.83
551.062
550.56
550.177
550.06
550.354
550.668
550.722
550.554
550.559
550.405
550.102
549.624
549.036
549.549
549.904
550.118
550.162
616.418
626.525
630.1
626.675
621.104
617.109
616.544
616.271
617.182
618.117
618.177
617.996
)
;

boundaryField
{
    bottom
    {
        type            symmetryPlane;
    }
    inlet1
    {
        type            fixedValue;
        value           uniform 300;
    }
    outlet1
    {
        type            zeroGradient;
    }
    top
    {
        type            zeroGradient;
    }
    wall1
    {
        type            zeroGradient;
    }
    bottomEmptyFaces
    {
        type            empty;
    }
    topEmptyFaces
    {
        type            empty;
    }
    procBoundary4to0
    {
        type            processor;
        value           nonuniform List<scalar> 
18
(
847.134
550.282
551.444
551.885
552.083
552.07
551.915
551.628
551.217
550.749
550.372
550.258
550.487
550.678
550.646
550.447
550.085
617.674
)
;
    }
    procBoundary4to5
    {
        type            processor;
        value           nonuniform List<scalar> 
14
(
551.515
551.517
551.469
551.446
551.329
551.254
551.331
551.461
551.461
551.46
551.426
551.307
551.162
551.028
)
;
    }
}


// ************************************************************************* //
