/*--------------------------------*- C++ -*----------------------------------*\
| =========                 |                                                 |
| \\      /  F ield         | OpenFOAM: The Open Source CFD Toolbox           |
|  \\    /   O peration     | Version:  2306                                  |
|   \\  /    A nd           | Website:  www.openfoam.com                      |
|    \\/     M anipulation  |                                                 |
\*---------------------------------------------------------------------------*/
FoamFile
{
    version     2.0;
    format      ascii;
    arch        "LSB;label=32;scalar=64";
    class       volVectorField;
    location    "0.1";
    object      U;
}
// * * * * * * * * * * * * * * * * * * * * * * * * * * * * * * * * * * * * * //

dimensions      [0 1 -1 0 0 0 0];

internalField   nonuniform List<vector> 
226
(
(-529.393 8.10251 0)
(-529.367 8.78819 0)
(-529.1 8.85759 0)
(-530.286 10.2706 0)
(-529.882 11.3885 0)
(-533.756 16.2469 0)
(-526.788 18.9854 0)
(-532.125 24.3609 0)
(-510.604 20.4851 0)
(-526.667 15.8533 0)
(-507.388 8.33256 0)
(-535.022 -0.728778 0)
(-529.068 11.016 0)
(26.6332 14.1062 0)
(254.653 16.5529 0)
(256.228 20.7339 0)
(252.935 24.763 0)
(250.598 24.9397 0)
(250.098 24.316 0)
(250.682 23.6926 0)
(252.425 23.4126 0)
(254.226 23.2804 0)
(254.637 23.2117 0)
(254.299 23.1625 0)
(253.531 23.1547 0)
(251.922 23.2336 0)
(250.309 23.4357 0)
(249.964 23.6476 0)
(250.248 23.8426 0)
(250.415 10.7402 0)
(250.863 11.865 0)
(250.518 12.9958 0)
(248.889 14.3073 0)
(246.578 14.8958 0)
(245.149 16.6387 0)
(246.033 19.3717 0)
(250.056 21.6005 0)
(256.932 21.4074 0)
(262.66 22.4541 0)
(263.13 20.6655 0)
(259.65 18.6244 0)
(260.187 22.2487 0)
(256.496 25.7672 0)
(253.237 25.9172 0)
(252.186 25.1876 0)
(252.415 24.2573 0)
(253.599 23.3915 0)
(254.7 23.004 0)
(254.785 22.9446 0)
(254.321 22.9525 0)
(253.428 23.0181 0)
(251.704 23.0234 0)
(249.97 23.2249 0)
(249.569 23.5478 0)
(249.797 23.8563 0)
(248.596 23.6164 0)
(248.498 23.3589 0)
(249.064 23.1045 0)
(251.058 22.9284 0)
(248.994 22.9277 0)
(246.951 23.3045 0)
(246.214 23.5754 0)
(246.167 23.7302 0)
(239.236 23.1732 0)
(240.454 23.4079 0)
(243.017 23.3573 0)
(243.04 23.3359 0)
(243.614 23.2463 0)
(245.272 22.8062 0)
(241.384 22.9501 0)
(240.549 23.436 0)
(240.381 23.4525 0)
(238.996 23.2221 0)
(238.928 23.2755 0)
(239.068 23.1582 0)
(238.251 22.8067 0)
(238.348 22.9216 0)
(238.62 22.9593 0)
(238.952 23.0547 0)
(239.587 23.5066 0)
(240.365 23.8472 0)
(241.037 24.2179 0)
(241.584 23.1954 0)
(240.57 23.1114 0)
(239.492 23.1087 0)
(239.296 22.8744 0)
(238.844 22.7146 0)
(238.389 22.3995 0)
(239.732 21.7665 0)
(240.279 22.1002 0)
(240.581 22.5488 0)
(241.78 22.3434 0)
(241.769 21.6338 0)
(241.4 21.061 0)
(242.463 20.4534 0)
(242.576 21.3084 0)
(242.408 22.2775 0)
(242.066 23.3423 0)
(241.304 24.5608 0)
(241.084 24.8856 0)
(241.967 23.5982 0)
(242.431 22.3642 0)
(242.696 21.1731 0)
(242.701 20.0485 0)
(242.424 19.0209 0)
(242.055 19.7354 0)
(240.888 20.5748 0)
(239.281 21.3427 0)
(238.189 21.8898 0)
(238.322 22.4343 0)
(239.611 22.4919 0)
(242.724 21.9543 0)
(247.137 22.0934 0)
(251.089 22.3912 0)
(253.151 22.7305 0)
(254.338 22.627 0)
(254.97 22.5145 0)
(255.212 22.4524 0)
(254.905 22.7392 0)
(254.617 23.5588 0)
(255.008 24.2948 0)
(256.374 24.8516 0)
(256.114 22.4238 0)
(255.368 22.1823 0)
(255.121 21.598 0)
(254.882 21.1267 0)
(254.385 21.0865 0)
(253.669 21.3692 0)
(252.577 21.8245 0)
(248.557 21.4236 0)
(249.666 20.8746 0)
(250.489 20.4647 0)
(245.526 18.9961 0)
(244.869 19.8404 0)
(243.953 20.8539 0)
(240.464 21.3298 0)
(241.144 19.9726 0)
(241.674 18.7961 0)
(241.95 17.7598 0)
(245.894 18.4347 0)
(251.157 20.065 0)
(251.639 19.7166 0)
(251.99 19.6257 0)
(252.489 19.7126 0)
(246.806 18.2891 0)
(246.336 18.1164 0)
(246.086 18.1403 0)
(242.084 16.9418 0)
(242.379 16.6645 0)
(242.954 16.7757 0)
(243.778 17.2378 0)
(247.417 18.6783 0)
(253.287 19.9374 0)
(257.92 22.3299 0)
(259.339 24.2041 0)
(262.981 21.5983 0)
(261.236 22.2388 0)
(255.547 20.6831 0)
(249.277 20.063 0)
(245.532 18.0301 0)
(244.966 16.1108 0)
(243.116 15.7847 0)
(242.137 15.7696 0)
(241.283 16.0796 0)
(240.652 16.8231 0)
(240.207 17.8421 0)
(239.762 19.0897 0)
(239.198 20.4158 0)
(238.655 21.5709 0)
(238.337 21.1951 0)
(238.766 20.1709 0)
(239.341 18.9166 0)
(239.678 18.6247 0)
(239.202 19.7765 0)
(239.078 20.6897 0)
(240.503 20.0123 0)
(240.406 19.2325 0)
(240.737 18.1836 0)
(241.696 17.0635 0)
(240.478 17.4267 0)
(239.968 17.6214 0)
(240.674 16.5589 0)
(241.637 15.8858 0)
(242.985 15.4502 0)
(245.104 15.6836 0)
(243.298 15.9462 0)
(241.661 16.5034 0)
(243.34 16.1852 0)
(245.406 15.7971 0)
(247.269 15.2945 0)
(248.6 14.7916 0)
(246.841 15.7488 0)
(244.781 16.283 0)
(242.962 16.9365 0)
(241.903 17.7451 0)
(241.539 18.4202 0)
(241.643 19.0684 0)
(242.137 18.1859 0)
(242.082 17.4692 0)
(242.418 16.8358 0)
(243.482 16.1575 0)
(245.306 15.6102 0)
(247.295 15.0757 0)
(248.955 13.9779 0)
(250.025 12.3235 0)
(249.871 13.1865 0)
(248.81 14.0893 0)
(246.782 15.0054 0)
(244.415 15.0547 0)
(246.414 15.0568 0)
(248.791 14.634 0)
(250.59 13.3967 0)
(251.287 12.3277 0)
(251.167 11.4888 0)
(28.0472 7.87665 0)
(39.4039 18.206 0)
(36.3135 23.4029 0)
(39.1006 22.7406 0)
(31.6988 24.8945 0)
(30.3345 21.651 0)
(27.2312 19.3908 0)
(27.7865 14.7573 0)
(27.8017 12.4552 0)
(28.3943 9.98101 0)
(27.7824 9.31747 0)
(27.4312 8.73176 0)
)
;

boundaryField
{
    bottom
    {
        type            symmetryPlane;
    }
    inlet1
    {
        type            fixedValue;
        value           uniform (754.6 0 0);
    }
    outlet1
    {
        type            zeroGradient;
    }
    top
    {
        type            zeroGradient;
    }
    wall1
    {
        type            slip;
    }
    bottomEmptyFaces
    {
        type            empty;
    }
    topEmptyFaces
    {
        type            empty;
    }
    procBoundary4to0
    {
        type            processor;
        value           nonuniform List<vector> 
18
(
(-529.766 8.21819 0)
(249.387 9.68066 0)
(240.487 25.0649 0)
(241.433 23.8009 0)
(241.962 22.4853 0)
(242.261 21.1003 0)
(242.381 19.7684 0)
(242.31 18.5863 0)
(242.174 17.5837 0)
(242.182 16.7018 0)
(242.544 15.9739 0)
(243.625 15.3233 0)
(245.377 14.8332 0)
(247.192 14.257 0)
(248.72 13.0765 0)
(249.585 11.4945 0)
(250.624 10.7652 0)
(26.8916 8.90412 0)
)
;
    }
    procBoundary4to5
    {
        type            processor;
        value           nonuniform List<vector> 
14
(
(251.019 24.1692 0)
(250.524 24.2734 0)
(249.155 23.9764 0)
(246.535 23.9708 0)
(243.364 23.4777 0)
(240.805 23.4599 0)
(239.574 23.282 0)
(239.188 23.3547 0)
(239.188 23.3547 0)
(239.538 24.2818 0)
(239.783 24.9084 0)
(240.124 25.4733 0)
(240.223 25.9383 0)
(239.978 26.2574 0)
)
;
    }
}


// ************************************************************************* //
