/*--------------------------------*- C++ -*----------------------------------*\
| =========                 |                                                 |
| \\      /  F ield         | OpenFOAM: The Open Source CFD Toolbox           |
|  \\    /   O peration     | Version:  2306                                  |
|   \\  /    A nd           | Website:  www.openfoam.com                      |
|    \\/     M anipulation  |                                                 |
\*---------------------------------------------------------------------------*/
FoamFile
{
    version     2.0;
    format      ascii;
    arch        "LSB;label=32;scalar=64";
    class       volScalarField;
    location    "0.1";
    object      p;
}
// * * * * * * * * * * * * * * * * * * * * * * * * * * * * * * * * * * * * * //

dimensions      [1 -1 -2 0 0 0 0];

internalField   nonuniform List<scalar> 
290
(
562741
566162
569542
574306
578005
584650
590057
594982
601766
586710
584004
580173
577590
576271
575574
575714
576683
577624
578850
580201
581520
584222
553128
552850
551859
552559
554219
554936
555265
553356
555579
554490
553784
555627
556144
556903
558075
557255
562622
561497
559491
559841
561784
563143
563636
562787
560547
561396
562265
563486
562993
562406
561923
559978
560587
559887
561585
561778
563593
563381
563548
563940
564300
564428
564217
563464
562118
560551
559306
558466
557877
557433
557044
556460
555209
553072
553873
552471
553705
555976
557632
558539
556748
554618
555687
557606
559332
560856
559845
558597
559155
559641
560189
561990
561347
560687
561996
562900
563755
565405
564308
563133
561751
560050
558393
556732
557801
559257
560711
561672
560333
558914
560142
561803
563268
565168
563471
562514
564178
565687
567042
568630
567001
565197
566883
568809
570413
572728
571417
569546
567917
565654
563755
561472
563011
566099
568844
572097
568146
564638
561232
575966
571868
573189
574984
576022
580245
580438
577705
580696
578729
585090
583962
589326
584656
581996
579060
576390
573627
571806
570176
568303
566373
564528
562627
560860
561715
562777
563856
564725
563978
563274
565162
565680
566152
566553
565410
564698
565190
565364
565323
566372
566235
565933
566841
566988
567087
567868
567962
568084
568145
568078
567768
567158
569416
570131
570384
572493
572246
571465
573048
573888
574233
574112
572317
570285
569869
569239
568795
570464
571057
571784
573591
572708
571895
571339
570089
568671
567995
567292
566443
565187
565160
565412
567012
566614
567692
568302
569101
568384
568973
569611
570071
569910
571134
571293
572482
572480
572751
573402
574307
575132
575530
575547
575214
574617
576531
576346
576353
576629
577126
578092
579445
577627
576588
576177
576378
576292
576020
575478
574788
576090
576285
576335
576269
576693
577199
577962
576782
575988
575844
576468
577743
580321
578295
579006
578623
577393
575904
574259
574048
574008
576065
575993
577859
578147
580191
579369
579722
580971
)
;

boundaryField
{
    bottom
    {
        type            symmetryPlane;
    }
    inlet1
    {
        type            fixedValue;
        value           nonuniform List<scalar> 0();
    }
    outlet1
    {
        type            zeroGradient;
    }
    top
    {
        type            zeroGradient;
    }
    wall1
    {
        type            zeroGradient;
    }
    bottomEmptyFaces
    {
        type            empty;
    }
    topEmptyFaces
    {
        type            empty;
    }
    procBoundary1to0
    {
        type            processor;
        value           nonuniform List<scalar> 
17
(
588785
562186
562935
564168
565760
567421
568839
569872
570442
570709
571862
572959
574530
576514
578693
581333
582498
)
;
    }
    procBoundary1to2
    {
        type            processor;
        value           nonuniform List<scalar> 
17
(
558874
558874
550106
549827
550430
550368
552112
558473
557623
556539
555285
555285
551193
551193
559147
559516
559516
)
;
    }
    procBoundary1to5
    {
        type            processor;
        value           nonuniform List<scalar> 
18
(
550756
551138
551196
551434
551997
552981
554489
556671
559130
560980
561782
561590
560787
559658
558695
558314
558549
559776
)
;
    }
}


// ************************************************************************* //
