/*--------------------------------*- C++ -*----------------------------------*\
| =========                 |                                                 |
| \\      /  F ield         | OpenFOAM: The Open Source CFD Toolbox           |
|  \\    /   O peration     | Version:  2306                                  |
|   \\  /    A nd           | Website:  www.openfoam.com                      |
|    \\/     M anipulation  |                                                 |
\*---------------------------------------------------------------------------*/
FoamFile
{
    version     2.0;
    format      ascii;
    arch        "LSB;label=32;scalar=64";
    class       volScalarField;
    location    "0.1";
    object      T;
}
// * * * * * * * * * * * * * * * * * * * * * * * * * * * * * * * * * * * * * //

dimensions      [0 0 0 1 0 0 0];

internalField   nonuniform List<scalar> 
290
(
547.852
548.811
549.739
551.025
552.019
553.798
555.293
556.658
558.484
554.407
553.621
552.566
551.845
551.46
551.249
551.277
551.505
551.696
552.021
552.37
552.692
553.355
547.953
547.79
547.427
547.217
547.764
548.041
548.213
548.094
548.923
548.55
548.285
548.388
548.603
548.885
549.281
549.458
551.174
550.78
550.148
549.835
550.438
550.895
551.11
551.268
550.792
550.972
551.169
551.122
551.034
550.917
550.84
550.697
550.954
550.711
550.8
550.901
550.965
550.849
550.85
550.909
550.963
550.944
550.814
550.529
550.097
549.612
549.201
548.9
548.673
548.484
548.308
548.077
547.661
546.988
546.414
546.195
546.862
547.549
548.064
548.045
547.497
546.853
546.954
547.531
548.052
548.508
548.45
548.388
548.598
548.785
548.986
549.156
548.943
548.722
548.855
549.134
549.395
549.681
549.359
549.012
548.603
548.103
547.616
547.125
547.299
547.749
548.186
548.334
547.905
547.443
547.605
548.13
548.611
549.207
548.881
548.715
549.201
549.639
550.031
550.397
549.923
549.396
549.734
550.307
550.787
551.253
550.843
550.283
549.777
549.08
548.486
547.799
548.076
548.974
549.784
550.53
549.417
548.427
547.464
551.62
550.669
551.075
551.593
551.924
552.845
552.894
552.144
552.822
552.254
554.023
553.702
555.116
553.817
553.176
552.57
552.096
551.56
551.208
550.843
550.394
549.964
549.628
549.363
549.223
549.519
549.871
550.214
550.076
549.818
549.575
549.815
549.972
550.131
550.275
550.313
550.498
550.697
550.801
550.836
550.682
550.602
550.488
550.382
550.453
550.507
550.431
550.436
550.445
550.449
550.433
550.354
550.189
550.711
550.908
550.972
551.52
551.442
551.213
551.58
551.84
551.96
551.94
551.474
550.934
550.806
550.621
550.495
550.915
551.103
551.322
551.805
551.566
551.343
551.185
550.789
550.463
550.488
550.591
550.75
550.849
550.888
551.01
550.998
550.845
550.733
550.932
550.819
550.611
550.551
550.741
550.772
550.729
551.117
551.144
551.52
551.515
551.574
551.722
551.935
552.126
552.212
552.202
552.089
551.886
552.202
552.195
552.238
552.075
552.161
552.37
552.518
552.057
551.799
551.7
552.035
552.253
552.209
552.096
551.957
552.078
552.087
552.063
551.748
551.899
552.075
551.994
551.654
551.439
551.404
551.581
551.936
552.637
551.933
552.136
552.235
552.166
552.062
551.862
551.845
551.859
552.201
552.13
552.338
552.477
552.735
552.471
552.324
552.63
)
;

boundaryField
{
    bottom
    {
        type            symmetryPlane;
    }
    inlet1
    {
        type            fixedValue;
        value           nonuniform List<scalar> 0();
    }
    outlet1
    {
        type            zeroGradient;
    }
    top
    {
        type            zeroGradient;
    }
    wall1
    {
        type            zeroGradient;
    }
    bottomEmptyFaces
    {
        type            empty;
    }
    topEmptyFaces
    {
        type            empty;
    }
    procBoundary1to0
    {
        type            processor;
        value           nonuniform List<scalar> 
17
(
554.532
551.444
551.28
551.191
551.168
551.161
551.115
551.044
550.984
550.949
551.284
551.654
552.03
552.363
552.669
553.069
553.014
)
;
    }
    procBoundary1to2
    {
        type            processor;
        value           nonuniform List<scalar> 
17
(
546.766
546.766
546.44
546.767
546.178
545.547
545.885
547.084
547.017
546.891
546.686
546.686
546.092
546.092
547.1
547.067
547.067
)
;
    }
    procBoundary1to5
    {
        type            processor;
        value           nonuniform List<scalar> 
18
(
547.527
547.721
547.81
547.942
548.162
548.501
548.988
549.664
550.418
551.001
551.281
551.263
551.084
550.82
550.603
550.538
550.642
551.028
)
;
    }
}


// ************************************************************************* //
