/*--------------------------------*- C++ -*----------------------------------*\
| =========                 |                                                 |
| \\      /  F ield         | OpenFOAM: The Open Source CFD Toolbox           |
|  \\    /   O peration     | Version:  2306                                  |
|   \\  /    A nd           | Website:  www.openfoam.com                      |
|    \\/     M anipulation  |                                                 |
\*---------------------------------------------------------------------------*/
FoamFile
{
    version     2.0;
    format      ascii;
    arch        "LSB;label=32;scalar=64";
    class       volVectorField;
    location    "0.1";
    object      U;
}
// * * * * * * * * * * * * * * * * * * * * * * * * * * * * * * * * * * * * * //

dimensions      [0 1 -1 0 0 0 0];

internalField   nonuniform List<vector> 
290
(
(248.039 68.7666 0)
(246.125 67.3331 0)
(243.687 66.7015 0)
(240.405 65.8284 0)
(237.776 63.9309 0)
(233.912 63.5148 0)
(227.406 56.0115 0)
(218.937 48.1259 0)
(211.364 38.5362 0)
(218.68 30.589 0)
(225.953 32.0054 0)
(229.847 31.8866 0)
(232.378 31.8152 0)
(234.086 31.7258 0)
(235.477 31.692 0)
(236.386 31.6487 0)
(237.115 31.557 0)
(237.529 31.3357 0)
(237.466 31.3931 0)
(236.754 30.7893 0)
(235.412 30.3283 0)
(233.419 29.1784 0)
(248.233 45.8063 0)
(249.971 46.8937 0)
(251.488 48.1549 0)
(249.235 48.8477 0)
(247.971 47.4423 0)
(246.362 46.2301 0)
(244.747 45.1101 0)
(246.615 44.723 0)
(243.437 40.9386 0)
(244.175 42.308 0)
(245.247 43.5586 0)
(243.351 43.9266 0)
(242.247 42.6455 0)
(241.467 41.2784 0)
(241.056 39.7666 0)
(243.124 39.3248 0)
(243.043 33.9953 0)
(243.321 35.6434 0)
(243.225 37.4706 0)
(241.088 37.9884 0)
(241.312 36.0952 0)
(241.303 34.291 0)
(240.907 32.6418 0)
(242.378 32.5285 0)
(239.671 29.1108 0)
(240.506 30.0507 0)
(241.496 31.2011 0)
(240.359 31.1866 0)
(239.684 29.9395 0)
(239.046 28.8508 0)
(238.6 27.8949 0)
(239.195 28.2875 0)
(239.467 26.3451 0)
(239.07 27.4444 0)
(238.449 27.0494 0)
(238.685 26.1398 0)
(237.789 25.5927 0)
(237.441 26.4986 0)
(237.451 27.4816 0)
(237.692 28.5764 0)
(238.022 29.7909 0)
(238.345 31.1729 0)
(238.649 32.7411 0)
(238.771 34.5022 0)
(238.642 36.3777 0)
(238.462 38.2246 0)
(238.574 39.8737 0)
(239.086 41.3548 0)
(239.945 42.762 0)
(241.146 44.0928 0)
(242.623 45.3737 0)
(244.257 46.675 0)
(245.735 48.1436 0)
(246.916 49.7555 0)
(244.259 56.0539 0)
(244.792 54.3218 0)
(244.83 51.0114 0)
(243.556 49.2049 0)
(242.141 47.4012 0)
(240.224 48.5244 0)
(241.684 50.5876 0)
(243.207 52.5351 0)
(242.261 54.2454 0)
(240.378 52.2026 0)
(238.712 49.9138 0)
(237.003 47.67 0)
(238.602 46.5422 0)
(240.509 45.7702 0)
(238.959 44.245 0)
(237.624 42.7955 0)
(236.628 41.3404 0)
(234.512 41.289 0)
(235.623 42.922 0)
(237.045 44.6498 0)
(235.489 45.4339 0)
(234.068 43.3799 0)
(232.936 41.4514 0)
(231.834 41.9253 0)
(232.901 44.1974 0)
(234.319 46.5647 0)
(235.882 49.0977 0)
(237.799 51.4878 0)
(239.734 53.862 0)
(242.049 55.8454 0)
(242.461 57.1525 0)
(239.783 55.3141 0)
(237.496 53.0098 0)
(237.755 54.3093 0)
(240.307 56.4623 0)
(243.288 58.121 0)
(244.106 59.1732 0)
(241.01 57.4905 0)
(238.349 55.3627 0)
(235.346 53.529 0)
(235.107 52.1881 0)
(235.239 50.657 0)
(233.568 47.9266 0)
(232.111 45.312 0)
(231.139 42.7106 0)
(230.564 43.7968 0)
(231.484 46.6833 0)
(233.192 49.3999 0)
(233.262 50.755 0)
(231.21 48.1535 0)
(230.333 45.0383 0)
(230.011 45.9574 0)
(230.829 49.33 0)
(233.265 51.9056 0)
(235.352 55.0155 0)
(238.594 56.9024 0)
(241.382 59.0094 0)
(244.464 60.7712 0)
(244.836 62.8338 0)
(241.316 61.3131 0)
(238.3 59.1208 0)
(238.177 62.4185 0)
(241.952 64.3331 0)
(244.948 65.47 0)
(247.131 67.1205 0)
(233.022 60.038 0)
(234.391 57.1359 0)
(232.199 53.4125 0)
(229.531 50.4283 0)
(229.119 46.316 0)
(227.605 45.5632 0)
(226.211 50.6546 0)
(230.028 54.6182 0)
(228.026 56.5583 0)
(231.98 62.7783 0)
(222.05 50.9697 0)
(223.795 43.9368 0)
(217.615 39.9487 0)
(224.865 35.7543 0)
(226.164 39.5632 0)
(227.616 41.7089 0)
(228.98 42.7174 0)
(229.629 42.7537 0)
(229.87 42.0739 0)
(230.116 41.112 0)
(230.475 40.3362 0)
(231.046 39.8397 0)
(232.085 39.6699 0)
(233.7 39.7212 0)
(235.967 39.8556 0)
(235.672 38.2695 0)
(235.651 36.552 0)
(235.728 34.7197 0)
(232.863 34.777 0)
(232.952 36.4579 0)
(233.215 38.1196 0)
(231.494 38.026 0)
(231.111 36.4582 0)
(230.897 34.877 0)
(230.678 33.2887 0)
(232.796 33.1026 0)
(235.725 32.9231 0)
(235.607 31.2625 0)
(235.457 29.7438 0)
(235.356 28.3696 0)
(232.472 28.2972 0)
(232.553 29.8337 0)
(232.686 31.4463 0)
(230.421 31.7175 0)
(230.144 30.1267 0)
(229.908 28.5068 0)
(228.224 28.7955 0)
(228.694 30.3803 0)
(229.182 31.9493 0)
(229.533 33.4595 0)
(229.857 34.9199 0)
(230.169 36.4134 0)
(230.552 38.0159 0)
(230.1 38.2656 0)
(229.78 36.5045 0)
(229.432 34.955 0)
(229.674 34.9004 0)
(229.928 36.6314 0)
(230.044 38.7 0)
(230.078 39.3615 0)
(230.31 36.9699 0)
(230.465 34.9884 0)
(230.393 33.3612 0)
(229.371 33.3977 0)
(229.088 33.525 0)
(228.591 32.109 0)
(227.964 30.6692 0)
(227.403 29.1911 0)
(227.458 29.474 0)
(228.153 30.7667 0)
(228.869 32.0359 0)
(230.139 31.9949 0)
(229.455 30.7344 0)
(228.691 29.4329 0)
(227.882 28.0934 0)
(226.82 28.0834 0)
(226.994 27.641 0)
(227.896 27.2098 0)
(229.804 26.916 0)
(232.518 26.8873 0)
(235.338 27.1648 0)
(235.509 26.0711 0)
(236.001 25.0058 0)
(233.349 24.3796 0)
(232.767 25.5996 0)
(229.959 25.373 0)
(230.441 23.8863 0)
(228.123 23.8878 0)
(227.856 25.5759 0)
(226.757 26.0108 0)
(226.739 24.2545 0)
(226.12 24.7421 0)
(226.366 26.5133 0)
(227.18 26.6858 0)
(226.613 25.1831 0)
(228.47 25.3998 0)
(229.175 26.8803 0)
(229.922 28.1741 0)
(230.7 29.2733 0)
(231.37 30.3778 0)
(231.84 31.5874 0)
(231.771 33.011 0)
(231.528 34.8515 0)
(230.861 37.0855 0)
(230.262 39.7952 0)
(230.205 39.6983 0)
(231.274 37.041 0)
(232.406 34.9198 0)
(233.067 34.4782 0)
(231.522 36.2771 0)
(229.89 38.64 0)
(229.207 36.6133 0)
(231.817 34.9985 0)
(233.481 33.6243 0)
(234.797 32.5341 0)
(234.045 32.822 0)
(233.038 33.086 0)
(233.361 31.6077 0)
(233.187 30.2796 0)
(232.651 29.0942 0)
(234.076 29.019 0)
(234.565 30.0857 0)
(234.506 31.3225 0)
(235.345 31.4066 0)
(235.575 30.5448 0)
(235.138 29.707 0)
(236.319 30.4039 0)
(236.526 30.9475 0)
(236.045 31.5181 0)
(235.264 32.1298 0)
(233.863 32.6598 0)
(232.054 33.3378 0)
(229.197 34.0221 0)
(236.81 31.1395 0)
(235.852 30.8436 0)
(235.195 29.4989 0)
(234.137 28.7351 0)
(233.323 27.9726 0)
(231.962 28.0362 0)
(231.259 26.947 0)
(230.62 25.6699 0)
(231.775 25.6464 0)
(232.473 26.8739 0)
(232.868 27.6013 0)
(231.858 26.1369 0)
(231.564 27.0337 0)
(233.489 28.5206 0)
(234.179 30.3385 0)
(231.862 29.1497 0)
)
;

boundaryField
{
    bottom
    {
        type            symmetryPlane;
    }
    inlet1
    {
        type            fixedValue;
        value           nonuniform List<vector> 0();
    }
    outlet1
    {
        type            zeroGradient;
    }
    top
    {
        type            zeroGradient;
    }
    wall1
    {
        type            slip;
    }
    bottomEmptyFaces
    {
        type            empty;
    }
    topEmptyFaces
    {
        type            empty;
    }
    procBoundary1to0
    {
        type            processor;
        value           nonuniform List<vector> 
17
(
(229.746 26.8264 0)
(240.487 25.0649 0)
(239.57 25.0386 0)
(238.505 24.6063 0)
(236.731 23.9452 0)
(234.11 23.2126 0)
(231.107 22.5183 0)
(228.588 22.1916 0)
(226.946 22.3764 0)
(226.242 22.8084 0)
(226.385 23.4128 0)
(227.874 23.7554 0)
(229.886 24.1561 0)
(230.914 24.3614 0)
(230.651 24.5472 0)
(229.275 24.8833 0)
(228.578 26.989 0)
)
;
    }
    procBoundary1to2
    {
        type            processor;
        value           nonuniform List<vector> 
17
(
(249.701 68.5217 0)
(249.701 68.5217 0)
(250.12 50.3831 0)
(252.484 49.6136 0)
(247.896 51.3794 0)
(246.551 55.8453 0)
(246.46 57.5763 0)
(246.884 61.1648 0)
(246.142 59.8321 0)
(245.151 58.8471 0)
(244.466 57.5894 0)
(244.466 57.5894 0)
(246.049 52.6774 0)
(246.049 52.6774 0)
(247.288 62.8519 0)
(247.387 65.3502 0)
(247.387 65.3502 0)
)
;
    }
    procBoundary1to5
    {
        type            processor;
        value           nonuniform List<vector> 
18
(
(253.32 47.4267 0)
(251.524 46.26 0)
(249.676 45.1817 0)
(247.993 44.0721 0)
(246.603 42.9089 0)
(245.544 41.6648 0)
(244.864 40.2593 0)
(244.662 38.5844 0)
(244.754 36.8006 0)
(244.665 35.1661 0)
(244.112 33.6963 0)
(243.221 32.327 0)
(242.049 31.1224 0)
(240.861 30.1376 0)
(239.955 29.2892 0)
(239.475 28.442 0)
(239.381 27.4856 0)
(239.978 26.2574 0)
)
;
    }
}


// ************************************************************************* //
