/*--------------------------------*- C++ -*----------------------------------*\
| =========                 |                                                 |
| \\      /  F ield         | OpenFOAM: The Open Source CFD Toolbox           |
|  \\    /   O peration     | Version:  2306                                  |
|   \\  /    A nd           | Website:  www.openfoam.com                      |
|    \\/     M anipulation  |                                                 |
\*---------------------------------------------------------------------------*/
FoamFile
{
    version     2.0;
    format      ascii;
    arch        "LSB;label=32;scalar=64";
    class       volScalarField;
    location    "0.1";
    object      p;
}
// * * * * * * * * * * * * * * * * * * * * * * * * * * * * * * * * * * * * * //

dimensions      [1 -1 -2 0 0 0 0];

internalField   nonuniform List<scalar> 
247
(
466323
474375
482269
488437
495837
501369
506294
511330
516176
520545
524429
527797
530640
534046
536341
538168
539534
540455
541309
542275
543650
544843
546572
548135
550088
552588
555926
558874
504377
494365
454967
458007
444612
447071
461143
472839
469451
480083
483367
492433
488779
497855
501174
509361
507540
516561
516623
523279
525743
529334
535543
536337
536439
535088
533371
531358
529682
527055
524859
521183
515860
509752
502780
494583
485786
475250
463592
465528
467172
467716
478701
477695
476836
486976
495477
503163
503015
495493
487315
487488
495349
502937
502585
495874
488016
480199
471525
504996
510387
509376
508947
509009
509377
514765
519423
522957
521854
518453
513996
513876
518451
521847
524985
524981
525991
527691
530198
531975
534034
535782
537013
537143
536649
536930
537546
538600
539024
538064
537489
537719
538371
539340
540725
540441
547229
544603
542309
542540
544755
547348
550106
549827
550430
547725
545251
543098
541272
539823
538686
537725
536485
534685
532560
531253
528646
527708
527674
530574
530547
533236
533653
535975
537933
539515
540952
542817
540810
538529
535979
536499
533420
534704
531817
528874
526130
522829
519314
514363
515627
520467
524544
526366
522811
529677
527955
530993
533832
536383
537822
535675
533062
537143
538806
540415
539877
539202
537824
540972
539552
542402
544929
546956
544610
542483
544322
546393
548708
550368
548348
546464
548769
550419
552112
553802
552325
550762
548842
546611
543875
544724
542088
542326
542192
543988
544514
546952
547316
549676
551865
553638
555117
555960
554097
551881
549334
548273
546018
545035
543343
542260
547126
549914
551079
553657
556114
558473
557623
556539
555285
551193
559147
555917
553029
552616
550183
555852
559516
)
;

boundaryField
{
    bottom
    {
        type            symmetryPlane;
    }
    inlet1
    {
        type            fixedValue;
        value           nonuniform List<scalar> 0();
    }
    outlet1
    {
        type            zeroGradient;
    }
    top
    {
        type            zeroGradient;
    }
    wall1
    {
        type            zeroGradient;
    }
    bottomEmptyFaces
    {
        type            empty;
    }
    topEmptyFaces
    {
        type            empty;
    }
    procBoundary2to1
    {
        type            processor;
        value           nonuniform List<scalar> 
17
(
562741
561232
552559
551859
553072
552471
553873
560142
558914
557801
553873
556732
552471
553705
561472
563011
561232
)
;
    }
    procBoundary2to3
    {
        type            processor;
        value           nonuniform List<scalar> 10(455336 442092 442092 428302 429967 449001 449001 450634 452455 454998);
    }
    procBoundary2to6
    {
        type            processor;
        value           nonuniform List<scalar> 
27
(
491882
486099
535548
534977
525489
516634
516634
485713
485713
475625
466256
466256
451611
530520
532179
533938
533938
535572
537907
536651
535886
540118
540118
542086
544449
547002
549302
)
;
    }
}


// ************************************************************************* //
