/*--------------------------------*- C++ -*----------------------------------*\
| =========                 |                                                 |
| \\      /  F ield         | OpenFOAM: The Open Source CFD Toolbox           |
|  \\    /   O peration     | Version:  2306                                  |
|   \\  /    A nd           | Website:  www.openfoam.com                      |
|    \\/     M anipulation  |                                                 |
\*---------------------------------------------------------------------------*/
FoamFile
{
    version     2.0;
    format      ascii;
    arch        "LSB;label=32;scalar=64";
    class       volScalarField;
    location    "0.1";
    object      T;
}
// * * * * * * * * * * * * * * * * * * * * * * * * * * * * * * * * * * * * * //

dimensions      [0 0 0 1 0 0 0];

internalField   nonuniform List<scalar> 
247
(
519.381
521.907
524.383
526.298
528.56
530.231
531.693
533.209
534.643
535.911
537.032
538.013
538.824
539.788
540.44
540.96
541.346
541.592
541.828
542.113
542.514
542.838
543.313
543.748
544.303
545.004
545.938
546.766
532.914
529.9
517.183
517.771
513.339
513.835
518.452
522.212
521.496
524.875
525.52
528.306
527.53
530.331
531.003
533.524
533.298
536.056
535.759
537.745
538.788
539.843
542.194
542.49
542.196
541.749
541.188
540.527
539.747
538.911
538.055
536.936
535.326
533.459
531.314
528.802
526.086
522.766
519.022
519.497
519.884
519.911
523.418
523.231
523.109
526.297
528.937
531.318
531.149
528.798
526.248
526.17
528.614
530.935
530.715
528.672
526.238
523.791
521.053
531.357
532.977
532.776
532.786
532.97
533.233
534.863
536.264
537.322
536.837
535.817
534.476
534.286
535.681
536.719
537.674
537.774
538.231
538.921
539.694
540.474
541.129
541.702
542.125
542.459
542.656
542.829
543.106
543.511
543.223
542.862
542.62
542.382
542.618
542.957
543.429
543.72
545.939
545.098
544.348
544.029
544.746
545.57
546.44
546.767
546.178
545.349
544.577
543.89
543.299
542.82
542.434
542.1
541.682
541.097
540.426
539.822
539.031
538.593
538.494
539.372
539.45
540.266
540.555
541.274
541.906
542.429
542.896
543.223
542.599
541.893
541.106
541.151
540.229
540.472
539.603
538.711
537.871
536.864
535.791
534.288
534.541
535.979
537.207
537.637
536.596
538.605
538.228
539.139
539.992
540.769
541.019
540.361
539.594
540.704
541.191
541.668
541.64
541.619
541.402
542.338
542.06
542.913
543.681
544.304
543.78
543.385
543.961
544.608
545.326
545.547
544.927
544.35
544.864
545.372
545.885
546.223
545.761
545.269
544.676
544.006
543.196
543.275
542.482
542.37
542.19
542.73
543.039
543.782
544.054
544.763
545.41
545.94
546.419
546.505
545.938
545.267
544.504
544.017
543.34
542.944
542.457
542.132
543.544
544.359
544.86
545.659
546.394
547.084
547.017
546.891
546.686
546.092
547.1
546.155
545.297
545.06
544.364
545.997
547.067
)
;

boundaryField
{
    bottom
    {
        type            symmetryPlane;
    }
    inlet1
    {
        type            fixedValue;
        value           nonuniform List<scalar> 0();
    }
    outlet1
    {
        type            zeroGradient;
    }
    top
    {
        type            zeroGradient;
    }
    wall1
    {
        type            zeroGradient;
    }
    bottomEmptyFaces
    {
        type            empty;
    }
    topEmptyFaces
    {
        type            empty;
    }
    procBoundary2to1
    {
        type            processor;
        value           nonuniform List<scalar> 
17
(
547.852
547.464
547.217
547.427
546.988
546.195
546.414
547.605
547.443
547.299
546.414
547.125
546.195
546.862
547.799
548.076
547.464
)
;
    }
    procBoundary2to3
    {
        type            processor;
        value           nonuniform List<scalar> 10(515.864 512.883 512.883 507.832 508.096 514.247 514.247 514.634 515.103 515.815);
    }
    procBoundary2to6
    {
        type            processor;
        value           nonuniform List<scalar> 
27
(
529.708
527.878
542.655
542.381
539.194
536.489
536.489
527.212
527.212
523.994
520.913
520.913
516.383
540.531
541.062
541.655
541.655
542.758
543.733
543.274
542.951
544.047
544.047
544.707
545.476
546.293
547.031
)
;
    }
}


// ************************************************************************* //
