/*--------------------------------*- C++ -*----------------------------------*\
| =========                 |                                                 |
| \\      /  F ield         | OpenFOAM: The Open Source CFD Toolbox           |
|  \\    /   O peration     | Version:  2306                                  |
|   \\  /    A nd           | Website:  www.openfoam.com                      |
|    \\/     M anipulation  |                                                 |
\*---------------------------------------------------------------------------*/
FoamFile
{
    version     2.0;
    format      ascii;
    arch        "LSB;label=32;scalar=64";
    class       volVectorField;
    location    "0.1";
    object      U;
}
// * * * * * * * * * * * * * * * * * * * * * * * * * * * * * * * * * * * * * //

dimensions      [0 1 -1 0 0 0 0];

internalField   nonuniform List<vector> 
247
(
(338.093 91.5737 0)
(330.316 92.3103 0)
(322.795 88.3683 0)
(315.756 87.2075 0)
(309.182 84.9381 0)
(304.395 82.7376 0)
(299.72 83.6131 0)
(295.66 81.5427 0)
(291.68 80.6549 0)
(289.052 79.0654 0)
(286.029 79.7931 0)
(283.551 78.3526 0)
(280.998 78.0034 0)
(278.351 77.5006 0)
(276.464 76.5127 0)
(274.254 76.9305 0)
(271.961 75.6172 0)
(269.178 75.2649 0)
(267.071 74.4205 0)
(265.192 74.5061 0)
(262.933 73.2447 0)
(260.518 72.768 0)
(258.284 71.921 0)
(256.633 70.9973 0)
(254.674 71.1577 0)
(252.915 70.0329 0)
(250.811 69.4304 0)
(249.701 68.5217 0)
(294.441 44.8049 0)
(302.6 47.7399 0)
(340.243 56.7706 0)
(341.492 61.0884 0)
(353.975 64.2749 0)
(352.636 70.2276 0)
(340.027 66.7478 0)
(329.157 64.5149 0)
(330.58 58.9453 0)
(320.374 56.8783 0)
(319.258 62.2157 0)
(310.357 59.9972 0)
(311.57 54.7277 0)
(302.901 52.5237 0)
(301.417 58.107 0)
(292.688 56.901 0)
(293.287 51.1525 0)
(283.916 50.8804 0)
(284.753 56.8871 0)
(277.541 57.3938 0)
(274.752 53.1973 0)
(271.497 57.4577 0)
(268.193 58.4659 0)
(266.755 58.1358 0)
(265.65 58.761 0)
(267.22 59.3628 0)
(268.674 59.5949 0)
(269.917 59.1472 0)
(270.453 60.4432 0)
(273.254 59.5496 0)
(274.756 61.9414 0)
(279.438 61.1668 0)
(285.791 61.4124 0)
(293.056 61.6897 0)
(301.059 63.1227 0)
(309.745 64.8983 0)
(318.603 67.2871 0)
(328.381 69.855 0)
(339.047 72.719 0)
(338.353 78.622 0)
(337.28 83.7342 0)
(335.386 88.6025 0)
(326.424 83.1824 0)
(327.327 79.5386 0)
(328.124 74.8942 0)
(318.558 72.1448 0)
(310.02 69.3909 0)
(301.583 67.5958 0)
(302.215 71.6785 0)
(310.228 73.6628 0)
(318.32 76.6684 0)
(317.596 80.6522 0)
(310.226 77.5384 0)
(302.679 75.4959 0)
(302.389 79.3002 0)
(309.055 80.9984 0)
(316.397 83.9803 0)
(324.11 86.0038 0)
(331.773 89.8328 0)
(300.809 80.8527 0)
(296.138 78.7977 0)
(296.89 75.8231 0)
(296.385 72.6304 0)
(295.36 69.232 0)
(294.133 65.6909 0)
(287.25 65.0633 0)
(281.247 64.3172 0)
(276.436 64.3084 0)
(278.217 66.8212 0)
(283.093 67.2688 0)
(288.88 68.3769 0)
(290.425 71.4994 0)
(284.936 70.0865 0)
(280.225 69.1666 0)
(276.006 68.4656 0)
(274.06 66.153 0)
(272.516 63.8781 0)
(271.239 62.0184 0)
(268.507 61.8091 0)
(268.33 60.5772 0)
(266.482 60.1988 0)
(264.732 59.5035 0)
(262.687 58.6923 0)
(263.675 58.184 0)
(264.863 57.6979 0)
(262.892 57.1459 0)
(261.08 56.45 0)
(259.512 55.5602 0)
(257.757 56.0346 0)
(259.522 56.9075 0)
(261.55 57.5906 0)
(260.449 57.8616 0)
(258.227 57.217 0)
(256.26 56.4107 0)
(254.559 55.5048 0)
(256.255 55.0458 0)
(253.226 51.1503 0)
(254.004 52.6238 0)
(255.005 53.9206 0)
(253.111 54.4739 0)
(251.905 53.2919 0)
(250.936 51.9159 0)
(250.12 50.3831 0)
(252.484 49.6136 0)
(247.896 51.3794 0)
(248.943 52.8544 0)
(250.179 54.0895 0)
(251.618 55.1524 0)
(253.288 56.0807 0)
(255.205 56.9058 0)
(257.379 57.6883 0)
(259.751 58.4488 0)
(262.026 59.3655 0)
(264.155 60.2721 0)
(266.195 61.177 0)
(266.501 62.6441 0)
(269.299 63.3784 0)
(270.543 65.4328 0)
(272.361 67.6209 0)
(268.989 66.8807 0)
(267.441 64.6094 0)
(264.823 63.4596 0)
(264.106 61.6243 0)
(261.844 60.606 0)
(259.604 59.5414 0)
(257.164 58.7448 0)
(254.768 57.9901 0)
(255.25 59.5892 0)
(257.676 60.3754 0)
(260.052 61.2788 0)
(262.366 62.4195 0)
(263.396 64.9305 0)
(266.088 65.7973 0)
(267.907 68.8036 0)
(270.922 69.9088 0)
(274.363 70.4831 0)
(277.927 71.2731 0)
(281.963 71.9284 0)
(286.399 73.0664 0)
(291.298 74.6878 0)
(291.248 77.6216 0)
(286.984 76.2471 0)
(283.234 74.4554 0)
(283.276 76.8495 0)
(286.165 78.0831 0)
(280.34 76.3832 0)
(279.437 74.0482 0)
(276.09 73.2954 0)
(272.808 72.8466 0)
(269.661 71.7272 0)
(270.918 73.9602 0)
(274.08 75.3728 0)
(277.22 75.7069 0)
(274.32 76.5241 0)
(271.661 75.2962 0)
(268.841 74.3683 0)
(267.861 73.3501 0)
(266.715 70.9761 0)
(265.088 67.9968 0)
(262.486 66.7546 0)
(261.016 63.746 0)
(258.666 62.7055 0)
(256.209 61.74 0)
(253.717 60.8027 0)
(252.856 58.8801 0)
(252.592 57.2317 0)
(250.655 56.3645 0)
(248.95 55.3162 0)
(247.407 54.1191 0)
(246.551 55.8453 0)
(248.489 57.0631 0)
(250.567 58.1024 0)
(251.192 59.8965 0)
(248.81 58.7727 0)
(246.46 57.5763 0)
(246.998 59.1163 0)
(249.602 60.3922 0)
(252.18 61.7043 0)
(254.885 62.8754 0)
(257.438 64.2005 0)
(259.967 65.5027 0)
(261.245 68.1127 0)
(263.829 69.7107 0)
(264.903 72.0076 0)
(265.586 73.4492 0)
(262.842 71.7377 0)
(262.076 70.3926 0)
(259.457 68.766 0)
(258.616 66.6 0)
(256.092 64.9101 0)
(253.315 63.4157 0)
(250.734 61.7275 0)
(247.918 60.3952 0)
(248.997 61.5465 0)
(251.739 63.2362 0)
(254.231 65.2375 0)
(256.908 66.9909 0)
(257.621 68.6422 0)
(260.129 70.3935 0)
(260.392 71.8637 0)
(262.818 72.8656 0)
(265.226 74.1136 0)
(257.875 70.3697 0)
(254.955 69.0077 0)
(254.842 66.9639 0)
(252.365 64.8434 0)
(249.704 63.0811 0)
(246.884 61.1648 0)
(246.142 59.8321 0)
(245.151 58.8471 0)
(244.466 57.5894 0)
(246.049 52.6774 0)
(247.288 62.8519 0)
(250.004 64.8039 0)
(252.662 66.5143 0)
(252.973 68.3407 0)
(254.997 69.9364 0)
(250.404 66.8734 0)
(247.387 65.3502 0)
)
;

boundaryField
{
    bottom
    {
        type            symmetryPlane;
    }
    inlet1
    {
        type            fixedValue;
        value           nonuniform List<vector> 0();
    }
    outlet1
    {
        type            zeroGradient;
    }
    top
    {
        type            zeroGradient;
    }
    wall1
    {
        type            slip;
    }
    bottomEmptyFaces
    {
        type            empty;
    }
    topEmptyFaces
    {
        type            empty;
    }
    procBoundary2to1
    {
        type            processor;
        value           nonuniform List<vector> 
17
(
(248.039 68.7666 0)
(247.131 67.1205 0)
(249.235 48.8477 0)
(251.488 48.1549 0)
(246.916 49.7555 0)
(244.792 54.3218 0)
(244.259 56.0539 0)
(244.106 59.1732 0)
(243.288 58.121 0)
(242.461 57.1525 0)
(244.259 56.0539 0)
(242.049 55.8454 0)
(244.792 54.3218 0)
(244.83 51.0114 0)
(244.464 60.7712 0)
(244.836 62.8338 0)
(247.131 67.1205 0)
)
;
    }
    procBoundary2to3
    {
        type            processor;
        value           nonuniform List<vector> 10((347.121 95.9533 0) (353.115 59.3376 0) (353.115 59.3376 0) (368.702 65.8541 0) (367.443 71.9503 0) (351.815 76.5843 0) (351.815 76.5843 0) (351.301 82.677 0) (349.855 87.6922 0) (347.582 91.1613 0));
    }
    procBoundary2to6
    {
        type            processor;
        value           nonuniform List<vector> 
27
(
(293.753 36.1491 0)
(299.214 42.6853 0)
(267.783 57.3373 0)
(269.103 57.5746 0)
(270.547 46.5845 0)
(281.884 43.197 0)
(281.884 43.197 0)
(310.128 50.6257 0)
(310.128 50.6257 0)
(318.567 50.5724 0)
(328.451 54.6823 0)
(328.451 54.6823 0)
(339.735 52.8383 0)
(270.167 55.0413 0)
(269.428 58.0165 0)
(269.091 58.4792 0)
(269.091 58.4792 0)
(266.035 56.9503 0)
(261.162 54.7948 0)
(262.597 55.7175 0)
(264.229 56.4297 0)
(258.171 54.5136 0)
(258.171 54.5136 0)
(257.06 53.2884 0)
(256.175 51.8738 0)
(255.441 50.332 0)
(254.606 48.8122 0)
)
;
    }
}


// ************************************************************************* //
