/*--------------------------------*- C++ -*----------------------------------*\
| =========                 |                                                 |
| \\      /  F ield         | OpenFOAM: The Open Source CFD Toolbox           |
|  \\    /   O peration     | Version:  2306                                  |
|   \\  /    A nd           | Website:  www.openfoam.com                      |
|    \\/     M anipulation  |                                                 |
\*---------------------------------------------------------------------------*/
FoamFile
{
    version     2.0;
    format      ascii;
    arch        "LSB;label=32;scalar=64";
    class       volScalarField;
    location    "0.01";
    object      p;
}
// * * * * * * * * * * * * * * * * * * * * * * * * * * * * * * * * * * * * * //

dimensions      [1 -1 -2 0 0 0 0];

internalField   nonuniform List<scalar> 
285
(
534243
532478
531156
530372
530163
530340
530109
528427
525807
522781
519726
516778
513908
511154
508617
506237
503701
500272
495734
490305
484380
478201
498385
503517
509221
515114
521816
528294
537582
548687
566985
570309
573468
512115
494754
489309
484822
478809
472666
466116
452382
535396
533617
532290
531513
531337
531562
531434
529909
527445
524602
521737
518977
516309
513746
511389
509135
506647
503217
498708
493315
487410
481243
484111
490321
496259
501702
506287
509895
505327
499855
493879
487610
491080
494247
497068
503385
500537
497377
503379
508843
513304
516620
512195
506676
509751
515422
520027
523664
520094
516803
513460
509839
512331
514394
516453
518708
521079
523567
526167
527361
525070
522945
520974
519166
517565
515846
519057
520425
521528
523598
523074
522161
525457
525880
525885
525884
524334
522830
524387
526157
528148
528627
526936
525464
526463
527680
529180
530067
528725
527803
527573
528165
528862
529310
527931
523539
518504
512791
505601
499260
496142
501447
507983
515281
521531
527721
531106
523971
518234
539072
533472
534062
532193
530600
532506
535020
540593
549009
546874
535965
533536
531824
530986
529410
529276
529995
531170
532283
531211
530753
531769
532026
533081
533493
532408
532027
531848
533437
536538
525383
517054
487040
477293
468288
465005
454733
530030
530796
531759
534828
534473
533737
532732
531732
530930
530600
530296
529738
528785
531064
532396
532449
532241
532441
533244
534604
535657
534261
533405
533113
533224
533112
531858
532297
533580
533846
534405
533922
532518
532846
534508
535405
535773
534565
533858
534248
535178
536625
537590
536092
535071
536324
537324
538760
540564
539487
538489
537489
536415
541722
540008
538647
537689
537086
536477
535290
533567
534504
536265
537723
538823
537207
535453
536117
537862
539577
540963
539978
538608
539286
540151
541364
542643
541584
540793
541991
542839
543818
544836
543832
542826
541519
539893
538099
536371
541639
543284
544619
545776
546896
545959
545014
544001
542906
)
;

boundaryField
{
    bottom
    {
        type            symmetryPlane;
    }
    inlet1
    {
        type            fixedValue;
        value           nonuniform List<scalar> 0();
    }
    outlet1
    {
        type            zeroGradient;
    }
    top
    {
        type            zeroGradient;
    }
    wall1
    {
        type            zeroGradient;
    }
    bottomEmptyFaces
    {
        type            empty;
    }
    topEmptyFaces
    {
        type            empty;
    }
    procBoundary6to2
    {
        type            processor;
        value           nonuniform List<scalar> 
27
(
504894
495182
533602
532496
524500
504894
515351
495182
487881
479682
456998
469365
456998
527968
529835
532496
531459
534856
539818
537990
536306
539818
541736
543675
545388
546815
548036
)
;
    }
    procBoundary6to5
    {
        type            processor;
        value           nonuniform List<scalar> 
13
(
536418
537590
542679
541719
540715
539711
538640
543718
548077
547242
546444
545612
544702
)
;
    }
    procBoundary6to7
    {
        type            processor;
        value           nonuniform List<scalar> 
13
(
471818
493554
493554
440539
474853
477693
481186
484738
488077
491210
493245
493245
442684
)
;
    }
}


// ************************************************************************* //
