/*--------------------------------*- C++ -*----------------------------------*\
| =========                 |                                                 |
| \\      /  F ield         | OpenFOAM: The Open Source CFD Toolbox           |
|  \\    /   O peration     | Version:  2306                                  |
|   \\  /    A nd           | Website:  www.openfoam.com                      |
|    \\/     M anipulation  |                                                 |
\*---------------------------------------------------------------------------*/
FoamFile
{
    version     2.0;
    format      ascii;
    arch        "LSB;label=32;scalar=64";
    class       volScalarField;
    location    "0.01";
    object      T;
}
// * * * * * * * * * * * * * * * * * * * * * * * * * * * * * * * * * * * * * //

dimensions      [0 0 0 1 0 0 0];

internalField   nonuniform List<scalar> 
285
(
546.145
545.58
545.147
544.875
544.778
544.797
544.689
544.145
543.331
542.39
541.436
540.512
539.605
538.73
537.922
537.16
536.342
535.24
533.785
532.044
530.135
528.126
532.09
533.662
535.401
537.187
539.174
541.091
543.847
547.112
552.287
553.166
554.088
535.991
530.647
528.875
527.361
525.397
523.494
521.353
516.877
546.3
545.732
545.296
545.023
544.933
544.957
544.869
544.359
543.595
542.723
541.831
540.962
540.114
539.293
538.533
537.801
536.994
535.891
534.448
532.72
530.815
528.81
529.264
531.284
533.197
534.936
536.394
537.088
535.64
533.899
531.979
529.945
530.661
531.315
531.925
533.909
533.331
532.698
534.624
536.366
537.787
538.477
537.055
535.292
535.905
537.698
539.174
540.356
539.602
538.908
538.223
537.53
538.343
539.026
539.706
540.44
541.205
541.995
542.801
542.778
542.058
541.379
540.734
540.133
539.588
539.005
539.653
540.131
540.522
540.853
540.641
540.299
540.98
541.182
541.244
541.301
541.127
540.967
541.482
542.055
542.692
542.56
542.009
541.518
541.542
541.973
542.48
542.494
542.02
541.667
541.534
541.628
541.72
541.754
541.284
539.895
538.332
536.585
534.393
532.444
531.419
533.053
535.044
537.224
539.079
540.9
541.831
539.783
538.102
544.052
542.591
542.781
542.343
542.016
542.211
542.837
544.44
546.874
546.364
542.929
542.198
541.758
541.906
541.791
541.812
542.105
542.533
542.537
542.14
541.902
541.818
542.017
542.405
542.117
541.721
541.509
541.363
541.793
543.082
539.303
536.741
527.664
524.555
521.616
520.895
517.51
540.433
540.71
541.063
542.589
542.888
543.033
543.057
543.045
543.05
543.188
543.37
543.521
543.604
544.314
544.775
544.845
544.828
544.929
545.212
545.658
545.579
545.124
544.827
544.698
544.693
544.612
544.185
543.997
544.417
544.54
544.436
544.248
543.795
543.662
544.194
544.504
544.65
544.525
544.585
544.744
545.061
545.526
545.518
545.048
544.713
544.846
545.168
545.614
546.165
546.104
546.109
546.16
546.236
546.296
545.774
545.348
545.034
544.817
544.592
544.194
543.638
543.637
544.212
544.697
544.717
544.182
543.602
543.444
544.029
544.601
545.069
545.115
545.018
545.273
545.574
545.969
546.09
545.72
545.419
545.432
545.748
546.106
546.037
545.675
545.318
544.867
544.315
543.71
543.123
544.485
545.045
545.51
545.918
546.316
546.441
546.527
546.537
546.451
)
;

boundaryField
{
    bottom
    {
        type            symmetryPlane;
    }
    inlet1
    {
        type            fixedValue;
        value           nonuniform List<scalar> 0();
    }
    outlet1
    {
        type            zeroGradient;
    }
    top
    {
        type            zeroGradient;
    }
    wall1
    {
        type            zeroGradient;
    }
    bottomEmptyFaces
    {
        type            empty;
    }
    topEmptyFaces
    {
        type            empty;
    }
    procBoundary6to2
    {
        type            processor;
        value           nonuniform List<scalar> 
27
(
533.141
530.199
541.73
541.341
538.433
533.141
535.753
530.199
527.328
524.801
517.902
521.45
517.902
539.52
540.114
541.341
540.637
542.173
543.871
543.254
542.678
543.871
544.08
544.722
545.298
545.793
546.229
)
;
    }
    procBoundary6to5
    {
        type            processor;
        value           nonuniform List<scalar> 
13
(
546.83
546.99
546.805
546.787
546.795
546.855
546.934
546.896
546.734
546.891
547.009
547.048
547
)
;
    }
    procBoundary6to7
    {
        type            processor;
        value           nonuniform List<scalar> 
13
(
526.028
530.611
530.611
512.959
526.71
527.156
527.84
528.594
529.327
530.074
530.568
530.568
513.495
)
;
    }
}


// ************************************************************************* //
