/*--------------------------------*- C++ -*----------------------------------*\
| =========                 |                                                 |
| \\      /  F ield         | OpenFOAM: The Open Source CFD Toolbox           |
|  \\    /   O peration     | Version:  2306                                  |
|   \\  /    A nd           | Website:  www.openfoam.com                      |
|    \\/     M anipulation  |                                                 |
\*---------------------------------------------------------------------------*/
FoamFile
{
    version     2.0;
    format      ascii;
    arch        "LSB;label=32;scalar=64";
    class       volVectorField;
    location    "0.01";
    object      U;
}
// * * * * * * * * * * * * * * * * * * * * * * * * * * * * * * * * * * * * * //

dimensions      [0 1 -1 0 0 0 0];

internalField   nonuniform List<vector> 
285
(
(266.163 39.0203 0)
(267 40.1098 0)
(268.14 41.2249 0)
(269.65 42.3663 0)
(271.591 43.5359 0)
(273.768 44.7241 0)
(275.819 45.9231 0)
(277.104 47.0958 0)
(277.859 48.2447 0)
(278.515 49.5025 0)
(279.402 50.8265 0)
(280.62 52.2362 0)
(282.297 53.7746 0)
(284.444 55.5875 0)
(287.283 57.6175 0)
(290.707 60.0575 0)
(294.684 62.7178 0)
(298.592 65.7607 0)
(302.578 68.8677 0)
(306.378 72.2144 0)
(310.633 75.4913 0)
(314.992 78.9905 0)
(298.813 104.467 0)
(293.913 101.297 0)
(288.016 100.019 0)
(284.036 97.0784 0)
(279.616 97.1579 0)
(274.306 92.9023 0)
(266.799 90.4302 0)
(261.033 83.4522 0)
(251.947 76.4682 0)
(248.15 57.0397 0)
(251.028 44.5138 0)
(283.105 29.6115 0)
(293.593 36.3756 0)
(299.28 42.9181 0)
(305.86 46.8066 0)
(314.526 50.8653 0)
(321.966 50.9699 0)
(331.112 51.3028 0)
(343.434 50.4358 0)
(265.544 40.0105 0)
(266.36 41.0923 0)
(267.477 42.2062 0)
(268.964 43.3551 0)
(270.883 44.5501 0)
(273.043 45.789 0)
(275.072 47.0699 0)
(276.358 48.3461 0)
(277.098 49.6181 0)
(277.741 51.008 0)
(278.604 52.4562 0)
(279.773 53.9947 0)
(281.383 55.6767 0)
(283.452 57.6292 0)
(286.189 59.7996 0)
(289.488 62.3681 0)
(293.331 65.1447 0)
(297.125 68.2809 0)
(301.034 71.4932 0)
(304.801 74.9311 0)
(309.048 78.2591 0)
(313.371 81.8037 0)
(308.576 83.0936 0)
(304.282 79.5375 0)
(300.072 76.1866 0)
(296.425 72.6975 0)
(292.746 69.4397 0)
(288.645 71.3989 0)
(292.153 74.8865 0)
(295.786 78.5604 0)
(300.056 82.0308 0)
(304.452 85.6542 0)
(301.362 88.484 0)
(298.569 91.3117 0)
(295.134 93.6542 0)
(290.012 89.9717 0)
(293.832 87.5961 0)
(296.78 84.7601 0)
(292.353 81.0527 0)
(288.61 77.0377 0)
(285.177 73.1402 0)
(282.179 74.9659 0)
(285.493 79.2945 0)
(289.294 83.6667 0)
(285.105 85.9069 0)
(281.258 81.1228 0)
(278.113 76.388 0)
(275.337 71.6457 0)
(279.167 70.7564 0)
(282.042 69.4083 0)
(285.38 68.0516 0)
(289.244 66.3064 0)
(285.724 63.5187 0)
(282.712 60.9289 0)
(280.219 58.6947 0)
(278.363 56.6511 0)
(276.94 54.8604 0)
(275.894 53.2284 0)
(275.089 51.6931 0)
(272.303 52.339 0)
(273.125 53.9266 0)
(274.12 55.6629 0)
(275.407 57.6058 0)
(277.092 59.8338 0)
(279.398 62.2507 0)
(282.167 65.0224 0)
(279.166 66.0032 0)
(276.716 63.0093 0)
(274.709 60.4536 0)
(273.279 60.8398 0)
(274.876 63.5349 0)
(276.805 66.8288 0)
(273.932 67.0575 0)
(272.953 63.4447 0)
(272.049 60.7165 0)
(271.154 58.6132 0)
(272.046 58.5575 0)
(273.26 58.1507 0)
(272.136 56.1591 0)
(271.223 54.4101 0)
(270.397 52.8125 0)
(269.474 53.3346 0)
(270.281 54.8939 0)
(271.082 56.6152 0)
(270.441 56.8946 0)
(269.803 55.348 0)
(269.131 53.9241 0)
(269.051 54.5567 0)
(269.569 55.7707 0)
(270.073 57.0111 0)
(270.527 58.3881 0)
(270.911 60.2389 0)
(270.655 62.7575 0)
(269.973 66.5662 0)
(269.841 72.0954 0)
(272.795 77.6198 0)
(276.256 82.6913 0)
(280.696 88.0313 0)
(286.662 92.5461 0)
(292.908 96.3372 0)
(298.742 103.305 0)
(293.016 99.3648 0)
(285.897 96.2193 0)
(278.131 92.1816 0)
(272.209 85.0471 0)
(266.923 78.893 0)
(262.997 83.9479 0)
(271.287 89.9662 0)
(277.792 95.6544 0)
(255.507 74.5406 0)
(262.546 72.168 0)
(264.344 65.5003 0)
(267.258 61.3053 0)
(269.567 59.5473 0)
(268.002 58.4616 0)
(263.509 57.9236 0)
(257.033 63.184 0)
(249.834 62.4237 0)
(250.572 77.3376 0)
(260.264 53.8987 0)
(267.2 56.5942 0)
(269.022 57.2761 0)
(269.474 57.7776 0)
(270.021 58.0844 0)
(269.825 57.1329 0)
(269.343 56.2922 0)
(268.897 55.3298 0)
(268.557 56.1622 0)
(269.04 56.8881 0)
(269.523 57.341 0)
(269.102 57.4846 0)
(268.575 57.3962 0)
(267.883 56.9141 0)
(266.925 57.4658 0)
(267.932 57.7324 0)
(268.799 57.5622 0)
(269.072 56.8913 0)
(267.703 54.3998 0)
(260.86 48.2611 0)
(271.094 45.9682 0)
(281.864 42.4597 0)
(310.352 50.4403 0)
(319.081 51.3081 0)
(329.085 55.5734 0)
(330.512 50.9798 0)
(340.866 54.1477 0)
(270.273 53.9373 0)
(269.573 56.909 0)
(268.616 57.8134 0)
(265.772 56.9675 0)
(266.879 56.3231 0)
(267.61 55.4256 0)
(268.004 54.3927 0)
(268.216 53.4094 0)
(268.231 52.5929 0)
(268.679 51.8574 0)
(269.655 51.2815 0)
(271.627 50.8151 0)
(274.475 50.228 0)
(273.764 48.857 0)
(272.492 47.4651 0)
(270.512 46.1014 0)
(268.396 44.8287 0)
(266.51 43.6409 0)
(265.043 42.5148 0)
(263.942 41.4289 0)
(260.889 42.1035 0)
(262.039 43.1641 0)
(263.543 44.2512 0)
(265.443 45.3898 0)
(267.556 46.6143 0)
(269.543 47.9492 0)
(270.857 49.3738 0)
(268.8 49.8106 0)
(267.438 48.3615 0)
(265.438 47.0278 0)
(264.43 47.7902 0)
(266.387 49.0338 0)
(267.747 50.4217 0)
(267.341 51.2565 0)
(266.109 49.9574 0)
(264.341 48.7526 0)
(262.211 47.7332 0)
(262.26 46.6991 0)
(263.287 45.8396 0)
(261.328 44.7405 0)
(259.73 43.6901 0)
(258.471 42.6608 0)
(257.181 43.6325 0)
(258.555 44.6561 0)
(260.248 45.6674 0)
(260.151 46.7696 0)
(258.357 45.8054 0)
(256.857 44.7937 0)
(255.606 43.7372 0)
(256.089 42.5856 0)
(257.504 41.6333 0)
(260.031 41.0543 0)
(263.139 40.3744 0)
(255.752 44.881 0)
(257.103 45.9408 0)
(258.683 46.9387 0)
(260.536 47.8615 0)
(262.571 48.7988 0)
(264.587 49.7971 0)
(266.172 50.9799 0)
(267.358 52.1931 0)
(267.162 53.279 0)
(265.989 52.1675 0)
(264.608 51.0084 0)
(264.316 52.2139 0)
(265.588 53.3626 0)
(266.734 54.4064 0)
(265.911 55.4097 0)
(264.781 54.4198 0)
(263.577 53.2787 0)
(262.089 52.1759 0)
(262.657 51.1519 0)
(262.767 50.0167 0)
(260.819 49.0823 0)
(258.956 48.1788 0)
(257.336 47.1636 0)
(257.331 48.2466 0)
(258.985 49.2505 0)
(260.835 50.1507 0)
(260.419 51.0982 0)
(258.652 50.115 0)
(257 49.1049 0)
(256.255 49.7826 0)
(257.846 50.801 0)
(259.472 51.8179 0)
(260.954 52.9362 0)
(262.288 54.0783 0)
(263.471 55.2137 0)
(264.653 56.1571 0)
(259.247 53.4321 0)
(257.932 52.2448 0)
(256.484 51.1803 0)
(255 50.1865 0)
(253.544 49.2003 0)
(254.758 48.7455 0)
(255.498 48.0557 0)
(255.87 47.1519 0)
(255.924 46.0643 0)
)
;

boundaryField
{
    bottom
    {
        type            symmetryPlane;
    }
    inlet1
    {
        type            fixedValue;
        value           nonuniform List<vector> 0();
    }
    outlet1
    {
        type            zeroGradient;
    }
    top
    {
        type            zeroGradient;
    }
    wall1
    {
        type            slip;
    }
    bottomEmptyFaces
    {
        type            empty;
    }
    topEmptyFaces
    {
        type            empty;
    }
    procBoundary6to2
    {
        type            processor;
        value           nonuniform List<vector> 
27
(
(294.464 43.7786 0)
(302.73 47.0599 0)
(265.901 57.9022 0)
(267.248 58.0417 0)
(274.923 51.4819 0)
(294.464 43.7786 0)
(283.706 49.2877 0)
(302.73 47.0599 0)
(310.982 54.6083 0)
(320.006 56.8348 0)
(341.12 58.4558 0)
(330.505 59.8716 0)
(341.12 58.4558 0)
(271.761 55.5479 0)
(270.102 57.5592 0)
(267.248 58.0417 0)
(268.535 58.4351 0)
(264.489 57.4686 0)
(260.512 54.6307 0)
(261.773 55.7793 0)
(263.123 56.7041 0)
(260.512 54.6307 0)
(257.213 54.0712 0)
(255.942 52.7688 0)
(254.638 51.5482 0)
(253.282 50.4536 0)
(251.885 49.4703 0)
)
;
    }
    procBoundary6to5
    {
        type            processor;
        value           nonuniform List<vector> 
13
(
(265.611 37.9218 0)
(265.01 38.9237 0)
(254.595 42.5972 0)
(255.26 41.4785 0)
(256.812 40.5585 0)
(259.451 39.9738 0)
(262.616 39.311 0)
(254.625 43.725 0)
(252.167 48.1219 0)
(253.402 47.5975 0)
(254.193 46.8564 0)
(254.619 45.9151 0)
(254.727 44.8438 0)
)
;
    }
    procBoundary6to7
    {
        type            processor;
        value           nonuniform List<vector> 
13
(
(320.015 82.3064 0)
(303.625 104.243 0)
(303.625 104.243 0)
(354.417 51.9437 0)
(318.375 85.1378 0)
(313.589 86.4122 0)
(309.569 89.0261 0)
(306.579 91.9853 0)
(303.768 94.9835 0)
(300.753 97.6626 0)
(299.194 101.301 0)
(299.194 101.301 0)
(353.169 57.2042 0)
)
;
    }
}


// ************************************************************************* //
