/*--------------------------------*- C++ -*----------------------------------*\
| =========                 |                                                 |
| \\      /  F ield         | OpenFOAM: The Open Source CFD Toolbox           |
|  \\    /   O peration     | Version:  2306                                  |
|   \\  /    A nd           | Website:  www.openfoam.com                      |
|    \\/     M anipulation  |                                                 |
\*---------------------------------------------------------------------------*/
FoamFile
{
    version     2.0;
    format      ascii;
    arch        "LSB;label=32;scalar=64";
    class       volScalarField;
    location    "0.01";
    object      p;
}
// * * * * * * * * * * * * * * * * * * * * * * * * * * * * * * * * * * * * * //

dimensions      [1 -1 -2 0 0 0 0];

internalField   nonuniform List<scalar> 
306
(
998622
955560
5.30266e+06
5.4359e+06
5.07507e+06
5.34182e+06
5.06116e+06
5.30739e+06
5.19183e+06
5.27116e+06
5.20141e+06
5.20613e+06
5.19547e+06
5.19079e+06
5.18271e+06
5.17459e+06
5.16661e+06
5.15789e+06
5.14939e+06
587682
593718
605192
589553
587210
583143
579519
576811
574581
573004
571839
571199
571027
571064
570991
567019
573717
573729
572934
569399
565870
560252
558962
558722
558498
558547
559348
560701
561500
561320
560606
559631
562570
563017
563646
562955
563130
563549
563479
564402
564998
564864
563993
562273
558631
559902
561139
562630
561096
559547
558082
557330
555786
555350
556097
556794
556158
556813
557859
556900
557136
558002
558592
558208
557206
556785
557624
559107
560778
562561
564225
565378
565882
565759
565087
564142
563301
563611
564304
565577
565673
564867
564431
565539
566388
566653
567297
566942
565977
566490
567426
567858
568635
568106
567327
566942
567316
569366
571194
572972
572345
570481
568729
568510
568864
569275
570261
570153
570142
571742
571376
571253
572656
573067
573599
574179
574642
576354
578008
579507
580566
578199
576155
575785
575141
574361
576849
578033
578500
582011
581649
579707
582791
584938
585947
582526
581241
581929
583413
590366
587944
585466
581769
579908
577985
575629
573629
572239
571115
570219
569387
568654
567730
567075
566311
565374
563947
562269
563422
565016
566304
567083
565988
564648
563169
561674
560497
558728
557389
557318
557726
558294
559858
561566
559959
558667
560056
561602
563151
564594
565920
567144
568125
569077
568341
567277
568550
569422
569974
570798
570214
569361
568347
567489
566043
564699
563305
561769
563259
564902
566244
567167
565902
564464
563133
561515
560308
558871
558094
558156
558242
558722
558170
557073
556883
557662
558664
560789
562307
564052
565361
566850
568116
569286
570222
571093
571699
572738
571972
570977
571797
573000
574196
576076
574390
572988
571690
570588
569969
568812
567629
566320
567026
568202
569378
570635
569805
569164
569458
570245
571052
572159
573576
575299
577603
578884
576280
574225
572651
571354
570382
569688
569571
569061
568896
566234
565150
563904
565207
568485
569252
570419
980152
980229
980891
982486
985337
988298
988440
984534
979339
977498
972971
983288
987865
1.01337e+06
1.0085e+06
)
;

boundaryField
{
    bottom
    {
        type            symmetryPlane;
    }
    inlet1
    {
        type            fixedValue;
        value           uniform 101325;
    }
    outlet1
    {
        type            zeroGradient;
    }
    top
    {
        type            zeroGradient;
    }
    wall1
    {
        type            zeroGradient;
    }
    bottomEmptyFaces
    {
        type            empty;
    }
    topEmptyFaces
    {
        type            empty;
    }
    procBoundary0to1
    {
        type            processor;
        value           nonuniform List<scalar> 
17
(
582954
562251
562475
562701
563303
564465
566166
568282
570190
571971
573449
574797
576138
577345
578293
579400
580022
)
;
    }
    procBoundary0to4
    {
        type            processor;
        value           nonuniform List<scalar> 
18
(
5.13952e+06
557909
561812
561915
561849
561708
561344
560723
559968
559134
558183
557023
555698
554537
554363
555348
555541
981331
)
;
    }
}


// ************************************************************************* //
