/*--------------------------------*- C++ -*----------------------------------*\
| =========                 |                                                 |
| \\      /  F ield         | OpenFOAM: The Open Source CFD Toolbox           |
|  \\    /   O peration     | Version:  2306                                  |
|   \\  /    A nd           | Website:  www.openfoam.com                      |
|    \\/     M anipulation  |                                                 |
\*---------------------------------------------------------------------------*/
FoamFile
{
    version     2.0;
    format      ascii;
    arch        "LSB;label=32;scalar=64";
    class       volScalarField;
    location    "0.01";
    object      rho;
}
// * * * * * * * * * * * * * * * * * * * * * * * * * * * * * * * * * * * * * //

dimensions      [1 -3 0 0 0 0 0];

internalField   nonuniform List<scalar> 
306
(
5.67735
5.49857
22.1294
22.5585
20.8391
21.7887
20.7558
21.8849
21.4998
21.8176
21.5533
21.5278
21.4293
21.3778
21.3315
21.2923
21.2549
21.2135
21.1709
3.69207
3.71933
3.7705
3.70163
3.69199
3.67398
3.65796
3.64631
3.63688
3.63049
3.62612
3.62429
3.62471
3.6267
3.62883
3.6116
3.64112
3.62494
3.60601
3.58819
3.57988
3.56143
3.55727
3.55649
3.55282
3.54739
3.54562
3.54859
3.55062
3.54861
3.5437
3.53687
3.5528
3.55706
3.55959
3.55434
3.55452
3.55662
3.55646
3.56274
3.56521
3.56444
3.56036
3.55045
3.53339
3.5393
3.54514
3.55406
3.54696
3.53978
3.53305
3.52739
3.52038
3.51835
3.52176
3.52717
3.52426
3.5272
3.53187
3.52542
3.52629
3.53234
3.53689
3.53546
3.53116
3.52939
3.53332
3.54017
3.54785
3.55605
3.56373
3.56913
3.57156
3.5712
3.56853
3.56459
3.5611
3.56546
3.57151
3.58008
3.58033
3.57389
3.56891
3.57364
3.57713
3.57806
3.58418
3.58283
3.57873
3.58392
3.588
3.58982
3.59606
3.59361
3.59017
3.58857
3.59036
3.60115
3.60999
3.61786
3.61508
3.60689
3.59838
3.59742
3.59905
3.60097
3.60632
3.60577
3.60557
3.61242
3.61087
3.61044
3.61586
3.61772
3.62019
3.62286
3.62498
3.63295
3.64177
3.65072
3.6552
3.64236
3.63191
3.63006
3.6269
3.62317
3.63547
3.64113
3.64356
3.66161
3.66003
3.65103
3.66828
3.67791
3.68171
3.66622
3.66054
3.66537
3.67224
3.7036
3.69363
3.68304
3.66654
3.65517
3.64296
3.62963
3.61969
3.61401
3.60998
3.60619
3.6015
3.59619
3.58917
3.58298
3.57627
3.57178
3.56513
3.55734
3.56575
3.57322
3.57928
3.58616
3.58108
3.57481
3.56784
3.55755
3.54911
3.54092
3.53464
3.53412
3.53887
3.5417
3.54907
3.56027
3.55271
3.54663
3.55649
3.56364
3.57083
3.57754
3.58368
3.58932
3.59381
3.60014
3.59688
3.59219
3.59921
3.60289
3.60519
3.60873
3.60628
3.60265
3.59832
3.59468
3.58672
3.58069
3.57436
3.5673
3.57616
3.58342
3.58929
3.59329
3.58788
3.58173
3.5761
3.56847
3.56059
3.55094
3.54383
3.54058
3.53801
3.53975
3.5404
3.53908
3.5418
3.54858
3.55581
3.56567
3.57051
3.57812
3.58384
3.59041
3.59593
3.60102
3.60509
3.60893
3.61162
3.6155
3.61186
3.60725
3.61154
3.61736
3.62297
3.6341
3.62616
3.61934
3.61285
3.60563
3.60261
3.59732
3.5919
3.58581
3.58769
3.5937
3.59964
3.60734
3.6028
3.59912
3.60702
3.61075
3.61447
3.61962
3.62618
3.63408
3.64466
3.65373
3.64231
3.63345
3.62682
3.62156
3.61788
3.61555
3.61563
3.60499
3.59718
3.58339
3.58031
3.57458
3.57822
3.59483
3.60612
3.62113
5.51924
5.52287
5.52832
5.53726
5.55196
5.56855
5.57674
5.57041
5.55394
5.54508
5.52363
5.56008
5.54773
5.66038
5.65653
)
;

boundaryField
{
    bottom
    {
        type            symmetryPlane;
    }
    inlet1
    {
        type            calculated;
        value           uniform 1.17641;
    }
    outlet1
    {
        type            calculated;
        value           nonuniform List<scalar> 0();
    }
    top
    {
        type            calculated;
        value           nonuniform List<scalar> 0();
    }
    wall1
    {
        type            calculated;
        value           nonuniform List<scalar> 3(3.7705 3.71933 3.69207);
    }
    bottomEmptyFaces
    {
        type            empty;
    }
    topEmptyFaces
    {
        type            empty;
    }
    procBoundary0to1
    {
        type            processor;
        value           nonuniform List<scalar> 
17
(
3.67081
3.55162
3.55495
3.55868
3.56428
3.57248
3.58298
3.59472
3.60476
3.61343
3.61998
3.62572
3.63214
3.63907
3.64543
3.65237
3.65681
)
;
    }
    procBoundary0to4
    {
        type            processor;
        value           nonuniform List<scalar> 
18
(
21.1229
3.52626
3.54774
3.54802
3.54745
3.54656
3.54472
3.54175
3.53817
3.53424
3.52979
3.52436
3.51818
3.51275
3.51187
3.51618
3.51678
5.52052
)
;
    }
}


// ************************************************************************* //
