/*--------------------------------*- C++ -*----------------------------------*\
| =========                 |                                                 |
| \\      /  F ield         | OpenFOAM: The Open Source CFD Toolbox           |
|  \\    /   O peration     | Version:  2306                                  |
|   \\  /    A nd           | Website:  www.openfoam.com                      |
|    \\/     M anipulation  |                                                 |
\*---------------------------------------------------------------------------*/
FoamFile
{
    version     2.0;
    format      ascii;
    arch        "LSB;label=32;scalar=64";
    class       volScalarField;
    location    "0.01";
    object      T;
}
// * * * * * * * * * * * * * * * * * * * * * * * * * * * * * * * * * * * * * //

dimensions      [0 0 0 1 0 0 0];

internalField   nonuniform List<scalar> 
306
(
612.66
605.302
834.62
839.314
848.258
853.93
849.326
844.694
841.104
841.519
840.567
842.324
844.464
845.734
846.251
846.48
846.661
846.885
847.191
554.417
556.005
559.059
554.746
553.984
552.843
551.814
550.991
550.283
549.739
549.282
548.945
548.715
548.451
548.059
546.843
548.817
551.278
553.402
552.72
550.569
547.927
547.306
547.191
547.536
548.422
549.482
550.35
550.82
550.955
551.016
551.121
551.531
551.308
551.533
551.67
551.812
551.897
551.854
551.784
551.984
551.971
551.751
551.605
550.677
551.008
551.316
551.393
550.992
550.585
550.19
550.33
549.898
549.783
549.99
549.835
549.661
549.848
550.153
550.213
550.309
550.221
550.094
549.938
549.619
549.479
549.696
550.091
550.54
551.017
551.456
551.748
551.863
551.799
551.557
551.243
550.96
550.59
550.333
550.254
550.308
550.515
550.858
551.208
551.497
551.612
551.295
551.158
550.851
550.552
550.834
550.974
550.771
550.634
550.405
550.276
550.366
550.7
551.115
551.627
551.447
550.899
550.506
550.441
550.534
550.638
550.775
550.754
550.774
551.271
551.155
551.102
551.628
551.74
551.876
552.026
552.148
552.578
552.822
552.896
553.228
552.915
552.546
552.472
552.334
552.154
552.67
552.943
553.02
553.634
553.529
553.041
553.368
553.952
554.335
553.427
553.064
552.989
553.362
555.215
554.429
553.681
552.66
552.605
552.619
552.388
551.981
551.508
551.039
550.754
550.665
550.769
550.949
551.264
551.555
551.334
550.969
550.532
550.361
550.763
551.084
550.783
550.5
550.16
549.79
549.917
550.069
549.602
549.26
549.271
548.935
549.054
549.449
549.39
548.985
548.658
548.498
548.907
549.312
549.688
550.034
550.358
550.621
550.575
550.359
550.047
550.206
550.486
550.669
550.924
550.734
550.465
550.145
549.872
549.688
549.305
548.921
548.507
548.598
549.085
549.489
549.772
549.373
548.918
548.486
548.079
548.111
548.191
548.528
549.092
549.576
549.777
549.134
548.259
547.652
547.369
547.238
547.8
548.539
549.071
549.466
549.905
550.287
550.642
550.923
551.179
551.352
551.762
551.579
551.324
551.459
551.731
552.025
552.137
551.728
551.417
551.157
551.195
551.059
550.748
550.433
550.096
550.494
550.713
550.941
550.979
550.872
550.814
549.892
550.084
550.294
550.576
550.942
551.394
551.997
551.849
551.087
550.462
549.956
549.507
549.13
548.816
548.691
549.818
550.851
550.385
549.803
549.469
550.18
550.814
549.83
548.673
618.555
618.197
618.004
618.01
618.161
618.173
617.354
615.613
614.181
614.005
613.535
615.975
620.221
623.569
620.999
)
;

boundaryField
{
    bottom
    {
        type            symmetryPlane;
    }
    inlet1
    {
        type            fixedValue;
        value           uniform 300;
    }
    outlet1
    {
        type            zeroGradient;
    }
    top
    {
        type            zeroGradient;
    }
    wall1
    {
        type            zeroGradient;
    }
    bottomEmptyFaces
    {
        type            empty;
    }
    topEmptyFaces
    {
        type            empty;
    }
    procBoundary0to1
    {
        type            processor;
        value           nonuniform List<scalar> 
17
(
553.143
551.402
551.104
550.748
550.47
550.34
550.381
550.634
550.944
551.338
551.764
552.183
552.495
552.597
552.539
552.545
552.467
)
;
    }
    procBoundary0to4
    {
        type            processor;
        value           nonuniform List<scalar> 
18
(
847.486
551.078
551.573
551.631
551.654
551.656
551.583
551.434
551.25
551.041
550.798
550.5
550.155
549.853
549.819
550.121
550.218
619.155
)
;
    }
}


// ************************************************************************* //
