/*--------------------------------*- C++ -*----------------------------------*\
| =========                 |                                                 |
| \\      /  F ield         | OpenFOAM: The Open Source CFD Toolbox           |
|  \\    /   O peration     | Version:  2306                                  |
|   \\  /    A nd           | Website:  www.openfoam.com                      |
|    \\/     M anipulation  |                                                 |
\*---------------------------------------------------------------------------*/
FoamFile
{
    version     2.0;
    format      ascii;
    arch        "LSB;label=32;scalar=64";
    class       volVectorField;
    location    "0.01";
    object      U;
}
// * * * * * * * * * * * * * * * * * * * * * * * * * * * * * * * * * * * * * //

dimensions      [0 1 -1 0 0 0 0];

internalField   nonuniform List<vector> 
306
(
(19.4967 7.25956 0)
(19.6614 -0.0442788 0)
(-539.312 -0.0552388 0)
(-544.433 11.2304 0)
(-517.906 3.47112 0)
(-534.678 -4.45676 0)
(-520.083 -8.339 0)
(-538.879 -11.9164 0)
(-534.67 -5.67102 0)
(-539.828 -2.18288 0)
(-535.005 2.64018 0)
(-533.844 5.02501 0)
(-532.01 6.20202 0)
(-531.701 6.31306 0)
(-531.42 6.92417 0)
(-531.007 7.17381 0)
(-530.641 7.77707 0)
(-530.157 8.00973 0)
(-529.768 8.66661 0)
(229.984 26.7325 0)
(225.251 21.357 0)
(212.449 15.2374 0)
(216.186 4.47273 0)
(225.712 2.6313 0)
(230.43 1.18757 0)
(234.267 1.04684 0)
(237.095 0.716474 0)
(239.296 0.57021 0)
(240.934 0.365119 0)
(242.078 0.114871 0)
(242.579 -0.403516 0)
(241.862 -1.35976 0)
(240.128 -2.4281 0)
(236.819 -3.31291 0)
(231.642 -0.12064 0)
(243.016 -3.55099 0)
(249.995 -3.92986 0)
(252.375 -2.64896 0)
(250.058 -1.47548 0)
(242.962 -3.28918 0)
(237.066 -3.2109 0)
(235.649 -0.0158463 0)
(237.333 2.66714 0)
(241.181 4.60739 0)
(245.082 6.37353 0)
(247.543 7.42602 0)
(248.56 8.00958 0)
(248.981 8.28533 0)
(249.342 8.4321 0)
(249.8 8.8432 0)
(250.476 9.42224 0)
(240.077 23.8243 0)
(239.202 23.9277 0)
(239.69 22.5683 0)
(240.349 22.6466 0)
(241.989 20.0838 0)
(241.454 20.7895 0)
(240.868 21.6338 0)
(240.417 21.3323 0)
(241.135 20.2558 0)
(241.753 19.3178 0)
(242.14 18.4968 0)
(242.403 19.3887 0)
(243.631 16.6739 0)
(243.209 17.7574 0)
(242.79 18.6324 0)
(242.363 17.7063 0)
(242.597 16.8853 0)
(242.918 15.9534 0)
(243.32 14.9234 0)
(244.036 15.4316 0)
(246.871 12.8825 0)
(245.263 13.5034 0)
(244.473 14.3205 0)
(243.818 13.9869 0)
(244.775 13.1627 0)
(246.55 12.3554 0)
(248.585 10.9793 0)
(248.922 11.6646 0)
(250.64 10.0205 0)
(250.086 9.36676 0)
(249.611 8.90832 0)
(248.04 10.3948 0)
(245.94 11.7979 0)
(244.199 12.6959 0)
(243.268 13.4652 0)
(242.802 14.2646 0)
(242.443 15.1581 0)
(242.18 16.027 0)
(241.946 16.8625 0)
(241.59 17.7397 0)
(241.007 18.7588 0)
(240.282 19.9477 0)
(239.351 21.2209 0)
(238.422 22.6374 0)
(237.744 24.1698 0)
(235.563 24.2763 0)
(232.746 24.0863 0)
(229.77 23.5797 0)
(230.236 22.2055 0)
(233.497 22.5429 0)
(236.375 22.6734 0)
(237.513 21.1019 0)
(238.666 19.6824 0)
(239.606 18.3558 0)
(237.223 17.8498 0)
(236.086 19.3254 0)
(234.75 20.898 0)
(231.316 20.6023 0)
(232.668 18.9398 0)
(233.902 17.3421 0)
(230.475 16.6372 0)
(229.302 18.3938 0)
(228.213 20.1741 0)
(227.628 21.8078 0)
(227.568 23.1255 0)
(226.603 22.7161 0)
(226.253 22.6286 0)
(226.921 22.8793 0)
(226.202 21.2449 0)
(225.788 21.1638 0)
(226.253 21.4248 0)
(226.382 19.914 0)
(226.977 18.2069 0)
(227.877 16.4363 0)
(226.686 16.1272 0)
(226.035 17.9541 0)
(225.746 19.6381 0)
(225.886 19.4955 0)
(225.947 17.6556 0)
(226.527 15.7554 0)
(227.782 15.6766 0)
(227.301 17.6861 0)
(227.458 19.6136 0)
(227.979 21.4645 0)
(228.757 23.2951 0)
(230.696 23.6813 0)
(231.459 23.8599 0)
(231.016 24.0906 0)
(230.949 21.5156 0)
(231.278 21.7713 0)
(230.179 21.6824 0)
(229.609 19.5819 0)
(229.663 17.2177 0)
(230.218 14.9336 0)
(232.227 14.0787 0)
(231.363 16.8152 0)
(230.508 19.5255 0)
(229.544 18.9095 0)
(231.017 15.1478 0)
(232.271 11.8437 0)
(230.546 9.30783 0)
(227.956 13.1073 0)
(225.523 18.3766 0)
(228.575 20.9528 0)
(229.524 24.2546 0)
(228.607 26.3843 0)
(225.68 22.7565 0)
(218.869 19.8058 0)
(222.284 10.0908 0)
(227.824 6.76556 0)
(231.356 4.37619 0)
(233.846 6.92413 0)
(235.277 9.72163 0)
(234.324 11.9976 0)
(231.495 12.9081 0)
(228.617 13.6863 0)
(227.326 13.8506 0)
(227.49 14.2877 0)
(228.827 14.6767 0)
(231.598 14.9901 0)
(235.031 15.8781 0)
(238.221 16.4866 0)
(240.394 17.1134 0)
(240.945 16.0026 0)
(241.382 15.037 0)
(241.827 14.1823 0)
(240.233 13.1609 0)
(239.607 14.1418 0)
(238.987 15.2602 0)
(235.973 14.5475 0)
(236.796 13.2847 0)
(237.653 12.1242 0)
(238.613 11.1509 0)
(240.91 12.3606 0)
(242.302 13.3967 0)
(242.798 12.7163 0)
(243.579 12.0594 0)
(245.148 11.2786 0)
(244.029 10.6893 0)
(242.471 11.2499 0)
(241.602 11.7615 0)
(239.68 10.4228 0)
(240.873 9.86883 0)
(242.432 9.42932 0)
(239.466 7.98433 0)
(237.786 8.55293 0)
(236.464 9.26623 0)
(235.296 10.1102 0)
(234.312 11.1226 0)
(233.434 12.2587 0)
(232.591 13.539 0)
(229.799 13.0603 0)
(230.629 11.5811 0)
(231.463 10.266 0)
(230.136 9.53746 0)
(229.314 10.9761 0)
(228.435 12.5673 0)
(228.294 12.0475 0)
(229.25 10.3946 0)
(230.125 8.87744 0)
(230.946 7.56181 0)
(230.902 8.25072 0)
(232.317 9.07913 0)
(233.321 8.02763 0)
(234.448 7.05217 0)
(235.925 6.16598 0)
(233.335 5.14865 0)
(232.42 6.10605 0)
(231.664 7.12222 0)
(231.659 6.37334 0)
(232.331 5.29417 0)
(233.03 4.22966 0)
(233.501 3.08064 0)
(234.251 4.12719 0)
(237.614 5.30797 0)
(241.418 7.39494 0)
(244.286 8.84554 0)
(245.969 9.8492 0)
(247.183 10.1486 0)
(249.029 8.8465 0)
(248.158 8.77456 0)
(246.892 8.08265 0)
(244.399 6.99909 0)
(240.622 5.10501 0)
(236.764 3.50053 0)
(234.885 1.71564 0)
(236.832 1.42598 0)
(235.555 2.75134 0)
(235.118 3.93788 0)
(234.502 5.11031 0)
(233.779 6.22053 0)
(233.004 7.42488 0)
(231.957 8.65867 0)
(230.909 10.1815 0)
(229.696 11.7978 0)
(232.859 10.9773 0)
(234.623 9.5091 0)
(236.071 7.99511 0)
(240.359 7.04705 0)
(238.418 8.48792 0)
(236.114 9.92061 0)
(237.605 7.92969 0)
(240.166 6.62808 0)
(242.387 5.46537 0)
(244.456 4.41767 0)
(242.353 5.95886 0)
(237.602 6.84575 0)
(238.79 5.6637 0)
(239.919 4.64389 0)
(240.925 3.58576 0)
(247.44 2.93862 0)
(245.772 3.92982 0)
(244.102 4.87762 0)
(246.335 3.42382 0)
(248.055 2.38677 0)
(249.792 1.3238 0)
(248.2 -0.896424 0)
(246.702 0.282077 0)
(245.274 1.39668 0)
(243.584 2.37651 0)
(241.669 3.34849 0)
(239.364 4.27153 0)
(236.838 5.53386 0)
(235 3.47095 0)
(237.676 2.58682 0)
(239.938 2.07312 0)
(241.666 1.52541 0)
(243.027 0.960417 0)
(243.946 0.28716 0)
(244.395 -0.588868 0)
(244.245 -1.77941 0)
(249.519 -2.12091 0)
(251.26 0.0608845 0)
(248.773 1.52241 0)
(241.79 2.42479 0)
(243.66 1.40495 0)
(250.433 -0.0480771 0)
(252.753 -1.16305 0)
(250.674 -2.98704 0)
(243.808 -2.97637 0)
(27.9243 9.79802 0)
(27.3971 9.22883 0)
(26.9523 8.96447 0)
(26.8604 8.28577 0)
(27.0107 7.66234 0)
(27.1961 6.90976 0)
(26.685 6.19868 0)
(25.0384 4.36232 0)
(23.4768 1.67468 0)
(21.6344 -3.56025 0)
(22.921 -8.20252 0)
(22.545 -13.5521 0)
(27.9942 -11.7998 0)
(25.0136 -10.1136 0)
(28.5236 -2.81915 0)
)
;

boundaryField
{
    bottom
    {
        type            symmetryPlane;
    }
    inlet1
    {
        type            fixedValue;
        value           uniform (754.6 0 0);
    }
    outlet1
    {
        type            zeroGradient;
    }
    top
    {
        type            zeroGradient;
    }
    wall1
    {
        type            slip;
    }
    bottomEmptyFaces
    {
        type            empty;
    }
    topEmptyFaces
    {
        type            empty;
    }
    procBoundary0to1
    {
        type            processor;
        value           nonuniform List<vector> 
17
(
(233.314 29.145 0)
(239.998 25.1441 0)
(238.931 25.4331 0)
(237.341 25.733 0)
(235.182 25.7574 0)
(232.471 25.3741 0)
(229.762 24.7565 0)
(227.937 24.196 0)
(227.17 23.9788 0)
(226.917 24.1394 0)
(227.729 24.5073 0)
(229.579 25.0135 0)
(231.513 25.3375 0)
(232.433 25.466 0)
(232.348 25.9187 0)
(231.579 26.6732 0)
(231.625 28.7632 0)
)
;
    }
    procBoundary0to4
    {
        type            processor;
        value           nonuniform List<vector> 
18
(
(-529.289 8.73773 0)
(251.018 10.1304 0)
(240.438 23.6586 0)
(240.503 22.7123 0)
(240.799 22.0692 0)
(241.319 21.5863 0)
(241.914 21.0326 0)
(242.442 20.2967 0)
(242.933 19.3859 0)
(243.413 18.3471 0)
(243.891 17.151 0)
(244.355 15.8109 0)
(244.83 14.643 0)
(245.432 13.8696 0)
(246.843 13.3355 0)
(248.822 12.3135 0)
(250.843 10.7233 0)
(28.8468 10.0711 0)
)
;
    }
}


// ************************************************************************* //
