/*--------------------------------*- C++ -*----------------------------------*\
| =========                 |                                                 |
| \\      /  F ield         | OpenFOAM: The Open Source CFD Toolbox           |
|  \\    /   O peration     | Version:  2306                                  |
|   \\  /    A nd           | Website:  www.openfoam.com                      |
|    \\/     M anipulation  |                                                 |
\*---------------------------------------------------------------------------*/
FoamFile
{
    version     2.0;
    format      ascii;
    arch        "LSB;label=32;scalar=64";
    class       volScalarField;
    location    "0.01";
    object      p;
}
// * * * * * * * * * * * * * * * * * * * * * * * * * * * * * * * * * * * * * //

dimensions      [1 -1 -2 0 0 0 0];

internalField   nonuniform List<scalar> 
247
(
467998
477808
486447
493441
501077
506267
510127
513532
515669
518025
520161
522580
524730
527583
530050
532975
536114
539847
542966
546458
549321
551430
553712
554888
556234
557162
558044
559472
504894
495182
456998
458395
445432
446719
460021
470764
469365
479682
480601
489039
487881
496802
497893
506415
506297
515351
514291
521563
524500
527968
532496
533602
533759
532631
531459
529835
529119
525975
525059
520283
513808
506630
498823
490286
481856
472176
461556
463665
466446
468637
480271
477130
474397
483846
491998
499956
501857
494403
486482
489303
497288
504191
506048
500150
491931
483541
473887
508670
512538
511311
509889
508436
507133
513735
519757
524684
524520
519927
514431
515199
520165
524226
528078
528723
528896
528889
531828
531470
533123
534347
535504
534973
534856
536306
537990
539818
539778
537948
536338
536774
538279
540056
542072
541736
546815
545388
543675
544246
546365
548211
549680
548036
551559
549632
547322
544890
542591
540602
538948
537603
536487
535374
533973
534835
532234
532268
531640
534950
535257
537309
536503
537609
538543
539670
541201
541738
540384
539439
538574
539262
537543
537087
533995
530391
526943
523387
519901
515506
515803
519307
522640
522179
519737
525076
525825
529063
532854
536287
535792
531840
528162
532528
535786
539568
539352
539423
539515
541169
540281
541089
542304
543923
543532
543125
545447
548055
550765
551382
548443
545803
546036
548563
551536
551543
548735
546435
544483
543096
542037
543351
541959
542769
543329
546497
544822
546276
544407
545560
547290
549321
551851
552813
550692
548983
547425
549984
548425
550323
548107
545168
552415
553679
551379
552652
554451
556726
555490
554863
554751
553223
558061
556059
554705
556105
555256
557386
559310
)
;

boundaryField
{
    bottom
    {
        type            symmetryPlane;
    }
    inlet1
    {
        type            fixedValue;
        value           nonuniform List<scalar> 0();
    }
    outlet1
    {
        type            zeroGradient;
    }
    top
    {
        type            zeroGradient;
    }
    wall1
    {
        type            zeroGradient;
    }
    bottomEmptyFaces
    {
        type            empty;
    }
    topEmptyFaces
    {
        type            empty;
    }
    procBoundary2to1
    {
        type            processor;
        value           nonuniform List<scalar> 
17
(
561277
560063
550838
549164
552977
554303
554715
559278
558483
558150
554715
558032
554303
555090
560232
561292
560063
)
;
    }
    procBoundary2to3
    {
        type            processor;
        value           nonuniform List<scalar> 10(455757 444110 444110 429443 430407 447767 447767 449223 451510 454894);
    }
    procBoundary2to6
    {
        type            processor;
        value           nonuniform List<scalar> 
27
(
494754
489309
533493
532408
525383
517054
517054
487040
487040
477293
468288
468288
454733
530030
530796
531759
531759
534828
539893
538099
536371
541639
541639
543284
544619
545776
546896
)
;
    }
}


// ************************************************************************* //
