/*--------------------------------*- C++ -*----------------------------------*\
| =========                 |                                                 |
| \\      /  F ield         | OpenFOAM: The Open Source CFD Toolbox           |
|  \\    /   O peration     | Version:  2306                                  |
|   \\  /    A nd           | Website:  www.openfoam.com                      |
|    \\/     M anipulation  |                                                 |
\*---------------------------------------------------------------------------*/
FoamFile
{
    version     2.0;
    format      ascii;
    arch        "LSB;label=32;scalar=64";
    class       volScalarField;
    location    "0.01";
    object      T;
}
// * * * * * * * * * * * * * * * * * * * * * * * * * * * * * * * * * * * * * //

dimensions      [0 0 0 1 0 0 0];

internalField   nonuniform List<scalar> 
247
(
519.848
522.933
525.631
527.777
530.09
531.664
532.814
533.831
534.467
535.172
535.812
536.529
537.152
537.986
538.702
539.538
540.445
541.513
542.396
543.37
544.176
544.757
545.383
545.699
546.054
546.311
546.54
546.919
533.141
530.199
517.902
517.843
513.559
513.649
518.014
521.503
521.45
524.801
524.652
527.321
527.328
530.079
530.074
532.686
532.991
535.753
535.068
537.269
538.433
539.52
541.341
541.73
541.41
541.025
540.637
540.114
539.612
538.653
538.135
536.671
534.707
532.542
530.152
527.49
524.821
521.726
518.302
518.842
519.597
520.146
523.86
523.008
522.286
525.291
527.857
530.334
530.749
528.433
525.96
526.687
529.161
531.286
531.7
529.906
527.382
524.779
521.739
532.414
533.588
533.322
533.046
532.792
532.553
534.565
536.384
537.864
537.687
536.3
534.639
534.681
536.203
537.448
538.611
538.957
539.141
539.306
540.212
540.347
540.883
541.296
541.687
541.826
542.173
542.678
543.254
543.871
543.435
542.83
542.29
542.108
542.589
543.158
543.799
544.08
545.793
545.298
544.722
544.486
545.163
545.77
546.274
546.229
546.427
545.816
545.097
544.351
543.647
543.031
542.507
542.072
541.705
541.337
540.884
540.922
540.146
540.022
539.687
540.691
540.912
541.511
541.439
541.796
542.106
542.475
542.958
542.916
542.496
542.191
541.902
541.98
541.469
541.192
540.235
539.142
538.099
537.018
535.941
534.601
534.584
535.642
536.647
536.435
535.704
537.294
537.615
538.587
539.719
540.777
540.478
539.312
538.212
539.448
540.391
541.497
541.538
541.73
541.932
542.431
542.298
542.561
542.938
543.431
543.463
543.547
544.253
545.042
545.857
545.813
544.94
544.148
544.065
544.813
545.686
545.569
544.744
544.059
543.471
543.043
542.709
542.945
542.504
542.564
542.591
543.525
543.2
543.654
543.281
543.644
544.173
544.788
545.541
545.661
545.02
544.497
544.016
544.577
544.103
544.512
543.877
543.043
545.114
545.481
545.001
545.399
545.945
546.63
546.462
546.424
546.498
546.596
546.826
546.224
545.811
546.076
545.819
546.452
547.017
)
;

boundaryField
{
    bottom
    {
        type            symmetryPlane;
    }
    inlet1
    {
        type            fixedValue;
        value           nonuniform List<scalar> 0();
    }
    outlet1
    {
        type            zeroGradient;
    }
    top
    {
        type            zeroGradient;
    }
    wall1
    {
        type            zeroGradient;
    }
    bottomEmptyFaces
    {
        type            empty;
    }
    topEmptyFaces
    {
        type            empty;
    }
    procBoundary2to1
    {
        type            processor;
        value           nonuniform List<scalar> 
17
(
547.396
547.12
546.684
546.637
546.889
546.668
546.616
547.397
547.345
547.377
546.616
547.444
546.668
547.171
547.485
547.614
547.12
)
;
    }
    procBoundary2to3
    {
        type            processor;
        value           nonuniform List<scalar> 10(515.921 513.584 513.584 508.159 508.167 513.79 513.79 514.12 514.738 515.708);
    }
    procBoundary2to6
    {
        type            processor;
        value           nonuniform List<scalar> 
27
(
530.647
528.875
542.117
541.721
539.303
536.741
536.741
527.664
527.664
524.555
521.616
521.616
517.51
540.433
540.71
541.063
541.063
542.589
544.315
543.71
543.123
544.485
544.485
545.045
545.51
545.918
546.316
)
;
    }
}


// ************************************************************************* //
