/*--------------------------------*- C++ -*----------------------------------*\
| =========                 |                                                 |
| \\      /  F ield         | OpenFOAM: The Open Source CFD Toolbox           |
|  \\    /   O peration     | Version:  2306                                  |
|   \\  /    A nd           | Website:  www.openfoam.com                      |
|    \\/     M anipulation  |                                                 |
\*---------------------------------------------------------------------------*/
FoamFile
{
    version     2.0;
    format      ascii;
    arch        "LSB;label=32;scalar=64";
    class       volVectorField;
    location    "0.01";
    object      U;
}
// * * * * * * * * * * * * * * * * * * * * * * * * * * * * * * * * * * * * * //

dimensions      [0 1 -1 0 0 0 0];

internalField   nonuniform List<vector> 
247
(
(338.904 91.4077 0)
(331.51 92.1068 0)
(324.822 88.5355 0)
(318.084 87.6376 0)
(311.49 86.0234 0)
(306.62 83.6533 0)
(301.512 84.6112 0)
(296.588 82.0964 0)
(291.685 81.1515 0)
(288.034 79.4903 0)
(284.954 79.9435 0)
(281.72 78.1892 0)
(278.617 77.6607 0)
(276.035 76.7393 0)
(274.315 75.8015 0)
(272.353 76.0187 0)
(270.884 75.146 0)
(269.267 74.711 0)
(268.337 74.0183 0)
(266.788 74.2661 0)
(265.295 73.2609 0)
(263.419 72.916 0)
(261.042 72.41 0)
(259.204 71.3907 0)
(256.604 71.8031 0)
(254.084 70.2758 0)
(251.098 69.7301 0)
(248.763 68.7058 0)
(294.464 43.7786 0)
(302.73 47.0599 0)
(341.12 58.4558 0)
(341.738 62.5859 0)
(354.355 66.2791 0)
(352.793 70.8224 0)
(339.825 67.0986 0)
(328.658 64.3509 0)
(330.505 59.8716 0)
(320.006 56.8348 0)
(318.495 61.4393 0)
(309.474 59.0488 0)
(310.982 54.6083 0)
(302.385 51.7684 0)
(300.6 56.8871 0)
(292.083 55.3679 0)
(292.924 49.774 0)
(283.706 49.2877 0)
(284.357 55.0405 0)
(277.54 55.6096 0)
(274.923 51.4819 0)
(271.761 55.5479 0)
(267.248 58.0417 0)
(265.901 57.9022 0)
(264.999 58.5484 0)
(266.746 58.6863 0)
(268.535 58.4351 0)
(270.102 57.5592 0)
(270.934 59.0057 0)
(273.612 57.8441 0)
(275.241 60.922 0)
(279.455 59.9809 0)
(285.388 60.0939 0)
(292.261 60.4924 0)
(299.984 62.0039 0)
(308.604 63.7154 0)
(317.609 66.143 0)
(327.653 68.7579 0)
(338.62 71.7135 0)
(338.094 76.6082 0)
(337.684 81.3672 0)
(336.162 86.9007 0)
(327.302 82.2159 0)
(327.527 77.9761 0)
(327.588 73.3079 0)
(317.636 71.0916 0)
(308.84 68.6308 0)
(300.376 67.1947 0)
(301.761 72.3758 0)
(309.844 73.64 0)
(318.179 75.9394 0)
(318.364 80.5399 0)
(310.641 78.2966 0)
(303.118 77.091 0)
(303.397 81.4847 0)
(310.537 82.2354 0)
(318.125 84.3953 0)
(325.48 85.8969 0)
(332.388 89.1806 0)
(302.433 83.1575 0)
(296.936 80.6594 0)
(297.025 78.3417 0)
(296.257 74.9612 0)
(294.831 70.4661 0)
(293.055 65.5114 0)
(286.589 65.0491 0)
(281.1 64.4533 0)
(276.883 64.4208 0)
(278.818 67.8864 0)
(283.209 68.5791 0)
(288.597 69.8179 0)
(290.202 74.102 0)
(284.798 72.5237 0)
(280.398 71.1702 0)
(276.595 69.9464 0)
(275.14 67.082 0)
(273.481 64.0745 0)
(272.064 61.259 0)
(269.495 61.4918 0)
(268.777 59.652 0)
(266.584 59.8424 0)
(264.403 59.67 0)
(262.261 59.267 0)
(263.26 58.1672 0)
(264.489 57.4686 0)
(263.123 56.7041 0)
(261.773 55.7793 0)
(260.512 54.6307 0)
(258.549 55.3346 0)
(259.988 56.5014 0)
(261.584 57.4201 0)
(260.246 58.5014 0)
(258.37 57.5775 0)
(256.7 56.4207 0)
(255.205 55.1373 0)
(257.213 54.0712 0)
(253.282 50.4536 0)
(254.638 51.5482 0)
(255.942 52.7688 0)
(253.87 53.752 0)
(252.615 52.3817 0)
(251.336 51.1303 0)
(249.97 50.0105 0)
(251.885 49.4703 0)
(248.103 50.8725 0)
(249.425 52.1512 0)
(250.685 53.5727 0)
(251.993 55.0649 0)
(253.476 56.5002 0)
(255.196 57.8085 0)
(257.156 58.9896 0)
(259.364 59.932 0)
(261.787 60.7338 0)
(264.391 61.1522 0)
(266.97 61.4503 0)
(267.844 63.339 0)
(270.609 63.7609 0)
(272.004 66.2146 0)
(273.344 68.63 0)
(270.356 67.3996 0)
(269.087 65.3215 0)
(266.191 64.3659 0)
(265.034 62.7673 0)
(262.066 62.2863 0)
(259.223 61.5045 0)
(256.622 60.5706 0)
(254.328 59.3899 0)
(254.265 60.9805 0)
(256.921 62.0666 0)
(259.86 62.9292 0)
(262.999 63.7302 0)
(264.465 65.0554 0)
(267.601 66.0288 0)
(268.947 67.7062 0)
(271.528 69.3202 0)
(274.495 70.8012 0)
(277.705 72.3747 0)
(281.394 73.8786 0)
(285.86 75.5604 0)
(291.097 77.3648 0)
(291.398 79.4037 0)
(286.061 78.0037 0)
(282.02 75.7337 0)
(281.767 77.2217 0)
(285.214 78.8983 0)
(278.625 76.1598 0)
(278.43 74.4159 0)
(275.487 72.764 0)
(272.546 71.3388 0)
(270.033 69.5708 0)
(270.801 71.4962 0)
(272.881 73.6292 0)
(275.776 74.7003 0)
(272.783 74.5084 0)
(270.976 73.3587 0)
(268.902 72.3307 0)
(268.413 70.2273 0)
(267.494 68.2408 0)
(266.034 66.602 0)
(262.852 65.4574 0)
(261.136 64.1961 0)
(257.889 63.4493 0)
(254.931 62.474 0)
(252.304 61.2902 0)
(251.939 59.7016 0)
(252.326 58.0634 0)
(250.598 56.6036 0)
(249.126 55.0284 0)
(247.796 53.4535 0)
(246.689 54.9545 0)
(248.199 56.6476 0)
(249.919 58.2614 0)
(249.949 59.9628 0)
(247.953 58.3555 0)
(246.206 56.6125 0)
(246.262 58.4324 0)
(248.328 60.101 0)
(250.635 61.6444 0)
(253.289 62.857 0)
(256.23 63.8617 0)
(259.5 64.6226 0)
(261.369 65.9988 0)
(264.587 67.0376 0)
(266.09 68.8537 0)
(266.714 71.2482 0)
(264.614 69.6656 0)
(263.14 67.795 0)
(259.897 66.9263 0)
(257.961 65.3273 0)
(254.824 64.3791 0)
(251.789 63.4619 0)
(249.168 61.983 0)
(246.778 60.4332 0)
(247.623 62.6852 0)
(250.373 64.0332 0)
(253.34 65.441 0)
(256.644 66.1975 0)
(258.425 68.16 0)
(261.519 68.988 0)
(262.51 71.2367 0)
(264.869 71.7336 0)
(266.438 72.6716 0)
(259.502 70.6669 0)
(256.183 69.914 0)
(254.964 67.6329 0)
(251.632 66.2556 0)
(248.57 64.9769 0)
(245.61 63.2818 0)
(245.105 60.8595 0)
(244.655 58.5079 0)
(244.476 56.4728 0)
(246.496 51.9639 0)
(245.972 65.5062 0)
(249.319 67.1713 0)
(252.855 68.0754 0)
(253.456 69.8192 0)
(256.595 71.1328 0)
(250.244 68.7288 0)
(246.684 67.2194 0)
)
;

boundaryField
{
    bottom
    {
        type            symmetryPlane;
    }
    inlet1
    {
        type            fixedValue;
        value           nonuniform List<vector> 0();
    }
    outlet1
    {
        type            zeroGradient;
    }
    top
    {
        type            zeroGradient;
    }
    wall1
    {
        type            slip;
    }
    bottomEmptyFaces
    {
        type            empty;
    }
    topEmptyFaces
    {
        type            empty;
    }
    procBoundary2to1
    {
        type            processor;
        value           nonuniform List<vector> 
17
(
(246.812 68.9276 0)
(246.369 68.5502 0)
(248.547 48.9517 0)
(250.494 48.4801 0)
(246.657 49.718 0)
(245.329 53.2374 0)
(244.685 54.7166 0)
(243.183 60.9985 0)
(242.981 58.5883 0)
(242.835 56.281 0)
(244.685 54.7166 0)
(242.938 54.3576 0)
(245.329 53.2374 0)
(245.047 50.6251 0)
(243.005 63.264 0)
(243.438 64.8681 0)
(246.369 68.5502 0)
)
;
    }
    procBoundary2to3
    {
        type            processor;
        value           nonuniform List<vector> 10((347.16 95.4216 0) (353.935 61.8149 0) (353.935 61.8149 0) (369.064 68.1653 0) (367.804 72.8094 0) (351.761 75.4625 0) (351.761 75.4625 0) (351.157 80.4002 0) (349.885 85.3178 0) (347.658 89.4976 0));
    }
    procBoundary2to6
    {
        type            processor;
        value           nonuniform List<vector> 
27
(
(293.593 36.3756 0)
(299.28 42.9181 0)
(266.925 57.4658 0)
(267.932 57.7324 0)
(271.094 45.9682 0)
(281.864 42.4597 0)
(281.864 42.4597 0)
(310.352 50.4403 0)
(310.352 50.4403 0)
(319.081 51.3081 0)
(329.085 55.5734 0)
(329.085 55.5734 0)
(340.866 54.1477 0)
(270.273 53.9373 0)
(269.573 56.909 0)
(268.616 57.8134 0)
(268.616 57.8134 0)
(265.772 56.9675 0)
(262.288 54.0783 0)
(263.471 55.2137 0)
(264.653 56.1571 0)
(259.247 53.4321 0)
(259.247 53.4321 0)
(257.932 52.2448 0)
(256.484 51.1803 0)
(255 50.1865 0)
(253.544 49.2003 0)
)
;
    }
}


// ************************************************************************* //
