/*--------------------------------*- C++ -*----------------------------------*\
| =========                 |                                                 |
| \\      /  F ield         | OpenFOAM: The Open Source CFD Toolbox           |
|  \\    /   O peration     | Version:  2306                                  |
|   \\  /    A nd           | Website:  www.openfoam.com                      |
|    \\/     M anipulation  |                                                 |
\*---------------------------------------------------------------------------*/
FoamFile
{
    version     2.0;
    format      ascii;
    arch        "LSB;label=32;scalar=64";
    class       volScalarField;
    location    "0.01";
    object      p;
}
// * * * * * * * * * * * * * * * * * * * * * * * * * * * * * * * * * * * * * //

dimensions      [1 -1 -2 0 0 0 0];

internalField   nonuniform List<scalar> 
221
(
226444
234320
245073
256865
265642
270848
274791
280933
271280
253010
229355
212990
208623
208345
215770
223265
232407
243159
256435
271514
286832
298403
301781
272700
242753
222455
217052
216307
213068
200005
186283
178622
183315
218890
310907
399850
423512
440692
455757
231603
226474
230353
233412
237361
238212
250668
244542
255372
264904
274249
264968
251023
246587
242605
240835
239626
239332
248342
247978
247088
251939
256165
257427
265561
270063
266947
250350
259251
260922
250427
243262
235363
233108
242400
256287
245995
241628
237173
245144
243430
241028
236946
243979
250064
252844
240071
227020
220042
217860
221051
228914
228875
232725
249103
244244
240457
244957
235571
228184
237256
248975
264533
257128
251454
243616
249826
251008
246454
231601
258212
280750
284424
277057
278966
270706
251575
252115
224137
233174
259249
290821
302874
387096
361337
332506
320040
353226
383065
410898
411138
428336
444110
429443
430407
447767
431066
409793
375210
339937
301266
271087
244202
220211
209149
214113
231144
248700
252428
253309
256874
263903
265164
261627
252789
243500
234590
227529
225340
228148
235173
243578
243208
238451
233735
220033
230651
221213
217190
219597
216830
211146
212908
223896
224957
233528
243319
254302
255565
243266
232878
269310
266268
277369
281251
275970
292374
291443
282344
268622
261457
251317
239563
219077
215526
227601
247298
211977
208067
205649
211743
226566
213773
209191
209817
223579
246277
275622
317267
363261
347030
285745
246582
406517
408615
431762
449223
451510
433816
437337
417237
454894
)
;

boundaryField
{
    bottom
    {
        type            symmetryPlane;
    }
    inlet1
    {
        type            fixedValue;
        value           nonuniform List<scalar> 0();
    }
    outlet1
    {
        type            zeroGradient;
    }
    top
    {
        type            zeroGradient;
    }
    wall1
    {
        type            zeroGradient;
    }
    bottomEmptyFaces
    {
        type            empty;
    }
    topEmptyFaces
    {
        type            empty;
    }
    procBoundary3to2
    {
        type            processor;
        value           nonuniform List<scalar> 10(467998 456998 445432 445432 446719 446719 461556 463665 466446 468637);
    }
    procBoundary3to7
    {
        type            processor;
        value           nonuniform List<scalar> 
34
(
221260
442684
427250
225147
230935
239102
248221
257757
267481
275424
278555
271477
253871
239994
227732
216290
211432
210596
215872
223303
233749
248587
268587
291877
310655
309616
289406
307459
307459
338881
365120
388558
410791
410791
)
;
    }
}


// ************************************************************************* //
