/*--------------------------------*- C++ -*----------------------------------*\
| =========                 |                                                 |
| \\      /  F ield         | OpenFOAM: The Open Source CFD Toolbox           |
|  \\    /   O peration     | Version:  2306                                  |
|   \\  /    A nd           | Website:  www.openfoam.com                      |
|    \\/     M anipulation  |                                                 |
\*---------------------------------------------------------------------------*/
FoamFile
{
    version     2.0;
    format      ascii;
    arch        "LSB;label=32;scalar=64";
    class       volScalarField;
    location    "0.01";
    object      T;
}
// * * * * * * * * * * * * * * * * * * * * * * * * * * * * * * * * * * * * * //

dimensions      [0 0 0 1 0 0 0];

internalField   nonuniform List<scalar> 
221
(
424.065
427.775
433.197
439.477
444.51
447.69
449.852
452.713
448.207
439.324
427.152
418.205
415.759
415.621
419.838
423.957
428.832
434.422
441.108
448.448
455.652
460.938
462.491
449.292
434.563
423.859
421.13
421.165
419.776
412.388
404.248
399.389
400.094
419.884
462.295
497.122
505.169
510.97
515.921
426.715
424.036
425.642
427.203
429.171
429.624
436.367
433.303
439.554
444.132
449.308
444.933
438.083
435.174
432.306
430.911
430.346
430.688
435.254
434.549
434.021
436.412
438.528
439.703
443.556
445.647
444.108
435.521
439.893
440.805
435.653
432.023
427.924
426.71
431.491
438.95
433.846
431.676
429.462
432.905
432.04
430.784
428.669
432.22
435.207
436.564
430.374
424.146
420.395
419.198
420.892
424.547
424.55
426.58
434.693
432.235
430.309
432.584
428.016
424.672
429.383
435.323
442.914
438.785
436.072
432.147
435.029
435.603
433.087
425.482
439.3
450.427
452.055
448.539
449.31
445.167
435.942
436.256
421.469
426.159
439.395
454.057
459.739
493.181
483.584
472.198
466.685
480.069
491.393
501.436
501.824
508.207
513.584
508.159
508.167
513.79
508.194
500.845
488.304
474.637
458.507
444.851
431.81
419.01
413.304
416.207
425.415
434.439
436.492
436.954
438.745
442.176
442.883
441.258
437.067
432.499
428.023
424.363
423.283
424.804
428.516
432.833
432.617
431.042
429.231
421.89
426.997
421.932
419.725
421.029
420.175
416.983
417.958
424.027
423.897
428.372
433.357
438.796
440.306
434.153
428.787
446.959
444.491
449.617
451.356
448.784
457.635
457.211
453.071
446.613
441.821
436.806
430.86
419.889
419.346
425.97
436.175
417.274
413.51
412.029
415.06
423.097
417.718
415.753
416.116
422.579
433.084
447.071
465.267
483.642
477.133
451.812
433.74
499.496
500.306
508.279
514.12
514.738
508.847
509.92
503.114
515.708
)
;

boundaryField
{
    bottom
    {
        type            symmetryPlane;
    }
    inlet1
    {
        type            fixedValue;
        value           nonuniform List<scalar> 0();
    }
    outlet1
    {
        type            zeroGradient;
    }
    top
    {
        type            zeroGradient;
    }
    wall1
    {
        type            zeroGradient;
    }
    bottomEmptyFaces
    {
        type            empty;
    }
    topEmptyFaces
    {
        type            empty;
    }
    procBoundary3to2
    {
        type            processor;
        value           nonuniform List<scalar> 10(519.848 517.902 513.559 513.559 513.649 513.649 518.302 518.842 519.597 520.146);
    }
    procBoundary3to7
    {
        type            processor;
        value           nonuniform List<scalar> 
34
(
421.76
513.495
508.268
423.84
426.909
431.192
435.813
440.531
445.186
448.896
450.327
446.989
438.476
431.536
425.187
418.981
416.282
415.811
418.725
422.739
428.233
435.762
445.477
456.096
464.241
463.339
454.387
462.125
462.125
475.201
485.488
494.169
502.079
502.079
)
;
    }
}


// ************************************************************************* //
