/*--------------------------------*- C++ -*----------------------------------*\
| =========                 |                                                 |
| \\      /  F ield         | OpenFOAM: The Open Source CFD Toolbox           |
|  \\    /   O peration     | Version:  2306                                  |
|   \\  /    A nd           | Website:  www.openfoam.com                      |
|    \\/     M anipulation  |                                                 |
\*---------------------------------------------------------------------------*/
FoamFile
{
    version     2.0;
    format      ascii;
    arch        "LSB;label=32;scalar=64";
    class       volVectorField;
    location    "0.01";
    object      U;
}
// * * * * * * * * * * * * * * * * * * * * * * * * * * * * * * * * * * * * * //

dimensions      [0 1 -1 0 0 0 0];

internalField   nonuniform List<vector> 
221
(
(553.827 -7.98065 0)
(547.847 -6.0797 0)
(538.827 -1.74647 0)
(528.316 2.84265 0)
(520.249 4.14553 0)
(513.506 4.03153 0)
(511.002 -0.534792 0)
(506.033 -3.5017 0)
(515.9 -7.70893 0)
(530.019 -5.40724 0)
(553.564 -5.05955 0)
(570.628 -0.625835 0)
(575.463 2.18755 0)
(576.071 3.27531 0)
(568.146 2.70536 0)
(560.401 3.55764 0)
(551.423 3.40037 0)
(541.294 3.60199 0)
(529.101 2.96784 0)
(515.371 1.9192 0)
(501.692 0.150759 0)
(491.537 -3.09078 0)
(488.529 -5.28393 0)
(515.076 -7.1929 0)
(544.003 -5.43292 0)
(565.589 -2.02388 0)
(571.08 -1.63554 0)
(570.367 -4.23328 0)
(569.987 -6.58493 0)
(579.559 -2.73659 0)
(587.902 13.1842 0)
(587.134 40.1605 0)
(582.501 80.1391 0)
(538.87 113.547 0)
(461.25 120.528 0)
(395.895 106.474 0)
(372.866 103.987 0)
(359.582 97.9548 0)
(347.16 95.4216 0)
(549.088 -16.4735 0)
(553.386 -15.0494 0)
(551.174 -16.428 0)
(549.062 -20.677 0)
(547.197 -22.4492 0)
(544.786 -15.2607 0)
(535.061 -11.1421 0)
(540.329 -20.7334 0)
(530.11 -15.1497 0)
(522.413 -5.28169 0)
(511.622 -0.944937 0)
(520.689 -8.68139 0)
(538.05 -16.9821 0)
(540.176 -23.8783 0)
(542.995 -27.0962 0)
(543.779 -25.9927 0)
(544.079 -21.4976 0)
(542.057 -16.4462 0)
(533.987 -15.7175 0)
(537.002 -20.5037 0)
(539.384 -25.7665 0)
(536.275 -22.7376 0)
(530.163 -19.1933 0)
(525.954 -14.9766 0)
(519.068 -12.6576 0)
(515.374 -6.86214 0)
(515.637 3.67849 0)
(534.49 10.2906 0)
(526.233 -4.11846 0)
(527.166 -14.8427 0)
(536.422 -13.1545 0)
(543.261 0.880865 0)
(549.542 14.4391 0)
(551.653 24.1754 0)
(540.67 23.8412 0)
(526.277 19.1309 0)
(534.964 30.8844 0)
(540.105 35.096 0)
(542.289 29.9946 0)
(537.846 32.9471 0)
(538.474 34.5597 0)
(542.034 32.0837 0)
(546.325 29.2984 0)
(539.547 30.9634 0)
(533.747 30.4077 0)
(532.097 23.3738 0)
(542.454 21.0214 0)
(553.254 16.2278 0)
(558.949 3.86907 0)
(562.43 -7.57995 0)
(559.06 -16.564 0)
(554.385 -18.6864 0)
(553.38 -7.21376 0)
(548.342 7.28997 0)
(533.825 10.3724 0)
(541.034 -5.997 0)
(543.03 -20.4817 0)
(539.938 -31.2133 0)
(548.099 -26.8975 0)
(552.694 -22.3855 0)
(542.989 -28.9997 0)
(532.662 -32.4895 0)
(519.63 -32.1745 0)
(527.127 -40.2599 0)
(532.775 -39.5607 0)
(540.567 -34.3201 0)
(535.244 -37.1306 0)
(533.842 -39.6823 0)
(541.38 -36.4137 0)
(551.773 -18.473 0)
(530.008 -24.9917 0)
(508.198 -23.3097 0)
(500.539 0.013829 0)
(506.67 30.3766 0)
(502.557 53.1571 0)
(511.78 47.5222 0)
(536.356 31.7672 0)
(530.36 3.33311 0)
(558.517 3.88445 0)
(552.994 24.2783 0)
(527.901 34.7049 0)
(498.424 47.2168 0)
(486.344 53.6825 0)
(408.238 71.3451 0)
(431.971 68.4657 0)
(457.172 62.8199 0)
(468.987 61.3546 0)
(439.698 70.4449 0)
(412.203 75.5702 0)
(386.709 76.3077 0)
(386.3 70.8789 0)
(368.554 63.6056 0)
(353.935 61.8149 0)
(369.064 68.1653 0)
(367.804 72.8094 0)
(351.761 75.4625 0)
(366.917 77.8324 0)
(387.815 82.1741 0)
(419.257 80.4601 0)
(452.019 71.7709 0)
(487.816 56.9212 0)
(515.63 38.1618 0)
(542.168 18.6127 0)
(564.731 8.21026 0)
(573.797 -1.41366 0)
(568.535 -10.091 0)
(553.475 -23.9597 0)
(536.017 -34.0441 0)
(533.778 -35.0104 0)
(532.522 -31.08 0)
(528.61 -18.8779 0)
(522.525 -2.6476 0)
(520.414 11.8837 0)
(524.168 21.159 0)
(531.641 24.1258 0)
(540.51 24.4 0)
(549.806 23.2843 0)
(557.319 20.8723 0)
(559.651 14.9868 0)
(557.979 5.35219 0)
(549.672 -9.3524 0)
(544.488 -21.1489 0)
(542.871 -28.8234 0)
(548.893 -26.8696 0)
(552.435 -19.2131 0)
(565.17 -8.85164 0)
(554.461 -16.0058 0)
(563.723 -3.12278 0)
(567.113 6.06013 0)
(564.287 12.7517 0)
(565.653 8.67252 0)
(573.537 4.60299 0)
(571.817 -0.903326 0)
(558.854 9.1957 0)
(558.702 15.668 0)
(549.817 16.6149 0)
(539.875 17.6019 0)
(529.611 16.9777 0)
(526.921 10.1526 0)
(538.65 10.6537 0)
(548.993 10.0915 0)
(514.414 8.60923 0)
(519.115 14.4076 0)
(510.29 9.26673 0)
(506.193 -0.0727883 0)
(511.003 -12.812 0)
(494.507 -6.34863 0)
(496.337 2.07942 0)
(503.258 6.09679 0)
(521.946 -18.4224 0)
(525.337 -26.412 0)
(535.788 -30.888 0)
(544.077 -21.9494 0)
(566.194 -8.63411 0)
(572.625 -1.44315 0)
(559.192 -8.96663 0)
(539.299 -21.1872 0)
(576.024 -1.96309 0)
(576.233 -4.64173 0)
(577.964 -5.68609 0)
(568.106 -3.69602 0)
(553.887 6.20213 0)
(581.159 -13.8782 0)
(582.242 -15.4436 0)
(579.267 -9.81946 0)
(571.001 7.12618 0)
(534.272 26.9877 0)
(509.254 48.754 0)
(470.202 71.0527 0)
(429.245 85.826 0)
(444.09 89.4158 0)
(504.454 65.7614 0)
(551.031 32.4744 0)
(389.164 97.0888 0)
(389.921 88.7986 0)
(366.19 83.5378 0)
(351.157 80.4002 0)
(349.885 85.3178 0)
(364.596 89.1605 0)
(361.553 93.8933 0)
(378.591 97.536 0)
(347.658 89.4976 0)
)
;

boundaryField
{
    bottom
    {
        type            symmetryPlane;
    }
    inlet1
    {
        type            fixedValue;
        value           nonuniform List<vector> 0();
    }
    outlet1
    {
        type            zeroGradient;
    }
    top
    {
        type            zeroGradient;
    }
    wall1
    {
        type            slip;
    }
    bottomEmptyFaces
    {
        type            empty;
    }
    topEmptyFaces
    {
        type            empty;
    }
    procBoundary3to2
    {
        type            processor;
        value           nonuniform List<vector> 10((338.904 91.4077 0) (341.12 58.4558 0) (354.355 66.2791 0) (354.355 66.2791 0) (352.793 70.8224 0) (352.793 70.8224 0) (338.62 71.7135 0) (338.094 76.6082 0) (337.684 81.3672 0) (336.162 86.9007 0));
    }
    procBoundary3to7
    {
        type            processor;
        value           nonuniform List<vector> 
34
(
(558.044 -7.18798 0)
(353.169 57.2042 0)
(367.616 59.1079 0)
(552.542 -11.8327 0)
(548.338 -11.3583 0)
(540.225 -11.2834 0)
(531.732 -10.7199 0)
(523.011 -10.5268 0)
(514.42 -8.99353 0)
(507.859 -5.9826 0)
(504.641 0.894134 0)
(511.469 11.6137 0)
(527.391 24.7641 0)
(540.665 30.5916 0)
(550.158 22.1978 0)
(562.355 9.94862 0)
(566.398 1.04747 0)
(568.891 -6.67471 0)
(562.511 -12.4841 0)
(555.747 -16.7451 0)
(544.708 -21.5651 0)
(530.664 -23.1872 0)
(511.825 -22.2353 0)
(491.611 -16.8008 0)
(476.028 -3.39893 0)
(471.048 22.9362 0)
(492.599 54.4637 0)
(477.305 58.5568 0)
(477.305 58.5568 0)
(449.292 63.2474 0)
(425.871 66.9337 0)
(404.863 67.1801 0)
(384.652 66.2222 0)
(384.652 66.2222 0)
)
;
    }
}


// ************************************************************************* //
