/*--------------------------------*- C++ -*----------------------------------*\
| =========                 |                                                 |
| \\      /  F ield         | OpenFOAM: The Open Source CFD Toolbox           |
|  \\    /   O peration     | Version:  2306                                  |
|   \\  /    A nd           | Website:  www.openfoam.com                      |
|    \\/     M anipulation  |                                                 |
\*---------------------------------------------------------------------------*/
FoamFile
{
    version     2.0;
    format      ascii;
    arch        "LSB;label=32;scalar=64";
    class       volScalarField;
    location    "0.1";
    object      p;
}
// * * * * * * * * * * * * * * * * * * * * * * * * * * * * * * * * * * * * * //

dimensions      [1 -1 -2 0 0 0 0];

internalField   nonuniform List<scalar> 
285
(
535359
534045
532836
531555
530104
528533
526961
525492
524196
523026
521750
519861
517195
513919
510237
506238
502014
497689
493387
489118
484750
479863
500403
505911
511535
516796
522810
528747
537228
548040
565974
568593
571794
509351
491882
486099
481490
475229
468673
461719
448373
536577
535231
533946
532576
531061
529471
527928
526535
525355
524338
523240
521542
519082
516026
512569
508785
504771
500621
496477
492310
487991
483123
486132
491087
495419
499535
503538
507095
503231
499090
494638
489472
492770
495907
498803
504734
501592
498228
502943
507200
510964
514788
511069
506662
510218
514776
518543
522080
518302
514585
510888
507521
511329
514882
518091
520890
523085
524508
525348
526578
526015
524929
523051
520560
517668
514432
517808
520631
523105
525416
523451
521152
524420
526041
527484
528661
527085
525213
526755
527512
527792
528816
528785
528349
529646
529905
529739
530608
530838
530642
529805
529137
528354
527729
526109
522139
518229
513706
507394
501324
497997
503768
510012
516549
521541
526436
530074
524049
519307
537400
531389
531551
530535
530305
531446
532846
537820
546581
545121
533875
532442
531851
531260
530465
531044
531664
531526
532666
532477
531573
532438
533646
534162
535548
534977
533481
532286
533009
535263
525489
516634
485713
475625
466256
461672
451611
530520
532179
533938
535572
534085
532647
531501
530674
529985
529235
528299
527252
526181
527238
528576
530141
531836
533526
535066
536397
537791
536483
534846
533026
531225
529599
528255
529238
530595
532287
533392
531593
530175
530915
532384
534237
536383
535448
534201
536179
537992
539372
541102
539639
537610
538654
540837
542464
543095
541834
540323
538881
537659
544384
543653
541793
539453
537083
534884
533010
531542
532269
533661
535503
536201
534486
533261
534548
535542
537040
538964
538303
537697
540102
542537
544605
545333
543131
540672
541227
543676
545987
546563
544135
541724
539613
537907
536651
535886
540118
542086
544449
547002
549302
548509
547575
546599
545561
)
;

boundaryField
{
    bottom
    {
        type            symmetryPlane;
    }
    inlet1
    {
        type            fixedValue;
        value           nonuniform List<scalar> 0();
    }
    outlet1
    {
        type            zeroGradient;
    }
    top
    {
        type            zeroGradient;
    }
    wall1
    {
        type            zeroGradient;
    }
    bottomEmptyFaces
    {
        type            empty;
    }
    topEmptyFaces
    {
        type            empty;
    }
    procBoundary6to2
    {
        type            processor;
        value           nonuniform List<scalar> 
27
(
504377
494365
536337
535543
525743
504377
516561
494365
488779
480083
454967
469451
454967
529334
531358
535543
533371
536649
538600
537546
536930
538600
540441
542309
544603
547229
549827
)
;
    }
    procBoundary6to5
    {
        type            processor;
        value           nonuniform List<scalar> 
13
(
536862
538060
543240
542317
541151
539990
538996
544378
550756
549357
547971
546683
545483
)
;
    }
    procBoundary6to7
    {
        type            processor;
        value           nonuniform List<scalar> 
13
(
474116
494675
494675
437182
477385
480343
483547
486660
489656
492650
494676
494676
439845
)
;
    }
}


// ************************************************************************* //
