/*--------------------------------*- C++ -*----------------------------------*\
| =========                 |                                                 |
| \\      /  F ield         | OpenFOAM: The Open Source CFD Toolbox           |
|  \\    /   O peration     | Version:  2306                                  |
|   \\  /    A nd           | Website:  www.openfoam.com                      |
|    \\/     M anipulation  |                                                 |
\*---------------------------------------------------------------------------*/
FoamFile
{
    version     2.0;
    format      ascii;
    arch        "LSB;label=32;scalar=64";
    class       volScalarField;
    location    "0.1";
    object      T;
}
// * * * * * * * * * * * * * * * * * * * * * * * * * * * * * * * * * * * * * //

dimensions      [0 0 0 1 0 0 0];

internalField   nonuniform List<scalar> 
285
(
546.655
546.221
545.804
545.358
544.861
544.33
543.8
543.305
542.865
542.466
542.039
541.415
540.555
539.518
538.359
537.099
535.76
534.378
532.991
531.606
530.18
528.583
532.727
534.41
536.119
537.708
539.47
541.209
543.721
546.91
552.018
552.686
553.583
535.08
529.708
527.878
526.368
524.231
522.082
519.771
515.437
546.813
546.371
545.938
545.474
544.963
544.425
543.9
543.418
543
542.633
542.253
541.691
540.902
539.935
538.846
537.652
536.38
535.054
533.718
532.364
530.952
529.357
529.891
531.516
532.934
534.271
535.56
536.271
535.028
533.686
532.233
530.542
531.21
531.852
532.48
534.342
533.68
532.987
534.522
535.903
537.12
537.962
536.748
535.317
536.073
537.532
538.754
539.905
539.101
538.28
537.48
536.83
538.037
539.159
540.173
541.058
541.76
542.238
542.553
542.549
542.323
541.947
541.342
540.549
539.63
538.603
539.308
540.211
541.005
541.414
540.775
540.027
540.688
541.238
541.721
542.113
541.953
541.682
542.183
542.453
542.586
542.615
542.556
542.375
542.479
542.628
542.633
542.646
542.653
542.514
542.161
541.872
541.572
541.305
540.736
539.483
538.272
536.884
534.957
533.095
532.011
533.78
535.678
537.623
539.094
540.516
541.522
539.805
538.432
543.564
541.972
542.053
541.882
541.89
541.941
542.244
543.64
546.189
545.856
542.309
541.85
541.688
541.929
542.063
542.351
542.625
542.65
542.651
542.507
542.13
541.959
542.427
542.684
542.655
542.381
541.847
541.411
541.616
542.628
539.194
536.489
527.212
523.994
520.913
519.699
516.383
540.531
541.062
541.655
542.758
542.756
542.721
542.693
542.713
542.761
542.79
542.789
542.8
542.861
543.242
543.708
544.239
544.806
545.367
545.882
546.328
546.316
545.872
545.327
544.726
544.133
543.596
543.146
543.111
543.554
544.096
544.145
543.577
543.117
543.093
543.574
544.158
544.817
544.785
544.707
545.338
545.919
546.374
546.544
546.081
545.453
545.509
546.175
546.678
546.898
546.798
546.705
546.691
546.745
547.049
546.792
546.221
545.52
544.803
544.125
543.529
543.037
542.992
543.465
544.062
543.977
543.41
542.982
542.987
543.362
543.876
544.512
544.652
544.752
545.49
546.221
546.848
546.83
546.156
545.397
545.241
546.016
546.742
546.563
545.79
545.013
544.317
543.733
543.274
542.951
544.047
544.707
545.476
546.293
547.031
547.195
547.261
547.244
547.171
)
;

boundaryField
{
    bottom
    {
        type            symmetryPlane;
    }
    inlet1
    {
        type            fixedValue;
        value           nonuniform List<scalar> 0();
    }
    outlet1
    {
        type            zeroGradient;
    }
    top
    {
        type            zeroGradient;
    }
    wall1
    {
        type            zeroGradient;
    }
    bottomEmptyFaces
    {
        type            empty;
    }
    topEmptyFaces
    {
        type            empty;
    }
    procBoundary6to2
    {
        type            processor;
        value           nonuniform List<scalar> 
27
(
532.914
529.9
542.49
542.194
538.788
532.914
536.056
529.9
527.53
524.875
517.183
521.496
517.183
539.843
540.527
542.194
541.188
542.656
543.511
543.106
542.829
543.511
543.72
544.348
545.098
545.939
546.767
)
;
    }
    procBoundary6to5
    {
        type            processor;
        value           nonuniform List<scalar> 
13
(
547.127
547.283
546.974
546.986
546.996
547.059
547.178
547.076
547.527
547.515
547.431
547.309
547.185
)
;
    }
    procBoundary6to7
    {
        type            processor;
        value           nonuniform List<scalar> 
13
(
526.699
530.982
530.982
511.77
527.474
527.987
528.597
529.218
529.845
530.55
531.033
531.033
512.485
)
;
    }
}


// ************************************************************************* //
