/*--------------------------------*- C++ -*----------------------------------*\
| =========                 |                                                 |
| \\      /  F ield         | OpenFOAM: The Open Source CFD Toolbox           |
|  \\    /   O peration     | Version:  2306                                  |
|   \\  /    A nd           | Website:  www.openfoam.com                      |
|    \\/     M anipulation  |                                                 |
\*---------------------------------------------------------------------------*/
FoamFile
{
    version     2.0;
    format      ascii;
    arch        "LSB;label=32;scalar=64";
    class       volVectorField;
    location    "0.1";
    object      U;
}
// * * * * * * * * * * * * * * * * * * * * * * * * * * * * * * * * * * * * * //

dimensions      [0 1 -1 0 0 0 0];

internalField   nonuniform List<vector> 
285
(
(266.86 39.0196 0)
(268.019 40.032 0)
(269.253 41.1061 0)
(270.448 42.2503 0)
(271.56 43.4423 0)
(272.638 44.6683 0)
(273.802 45.9059 0)
(275.12 47.1635 0)
(276.683 48.4318 0)
(278.497 49.7575 0)
(280.492 51.148 0)
(282.397 52.6521 0)
(284.18 54.271 0)
(285.931 56.0984 0)
(288.001 58.132 0)
(290.367 60.4694 0)
(293.328 62.9782 0)
(296.751 65.8158 0)
(300.939 68.7329 0)
(305.603 71.9992 0)
(310.903 75.2377 0)
(316.181 78.7851 0)
(300.085 104.841 0)
(295.253 101.702 0)
(289.144 100.268 0)
(285.014 97.1891 0)
(280.165 97.3568 0)
(274.258 92.5125 0)
(266.047 89.659 0)
(259.644 82.3309 0)
(250.405 75.8488 0)
(246.822 56.5241 0)
(250.256 43.8987 0)
(283.353 29.3064 0)
(293.753 36.1491 0)
(299.214 42.6853 0)
(305.458 46.5317 0)
(313.747 49.912 0)
(320.851 49.9817 0)
(329.862 50.1877 0)
(341.903 49.5809 0)
(266.311 40.0748 0)
(267.483 41.0402 0)
(268.686 42.0481 0)
(269.819 43.1348 0)
(270.87 44.2952 0)
(271.907 45.5212 0)
(273.041 46.7906 0)
(274.336 48.1093 0)
(275.879 49.4656 0)
(277.678 50.8944 0)
(279.651 52.399 0)
(281.493 54.0523 0)
(283.184 55.8448 0)
(284.835 57.8653 0)
(286.811 60.1078 0)
(289.093 62.6523 0)
(291.981 65.3655 0)
(295.349 68.3744 0)
(299.48 71.446 0)
(304.091 74.8286 0)
(309.347 78.1309 0)
(314.545 81.7389 0)
(309.722 83.0164 0)
(304.62 79.4235 0)
(299.464 76.1153 0)
(294.989 72.6821 0)
(291.033 69.5243 0)
(286.885 71.3876 0)
(290.78 74.736 0)
(295.271 78.3055 0)
(300.449 81.7133 0)
(305.614 85.3371 0)
(302.534 87.9537 0)
(299.782 90.6966 0)
(296.415 93.1334 0)
(291.047 89.4073 0)
(294.592 87.0076 0)
(297.296 84.2903 0)
(292.046 80.728 0)
(287.449 76.9572 0)
(283.569 73.3376 0)
(280.843 75.2203 0)
(284.641 79.1877 0)
(289.278 83.274 0)
(285.371 85.5579 0)
(280.75 80.9692 0)
(277.052 76.6153 0)
(273.997 72.3532 0)
(277.761 71.333 0)
(280.526 69.7576 0)
(283.819 68.0679 0)
(287.867 66.4131 0)
(285.235 63.5671 0)
(283.222 60.908 0)
(281.52 58.5619 0)
(280.119 56.4684 0)
(278.647 54.6067 0)
(276.95 52.875 0)
(275.043 51.2766 0)
(272.172 51.8653 0)
(274.048 53.5173 0)
(275.659 55.3348 0)
(276.97 57.2979 0)
(278.172 59.5174 0)
(279.617 62.0553 0)
(281.384 64.9545 0)
(278.309 66.2945 0)
(276.852 63.1209 0)
(275.737 60.4128 0)
(274.157 61.051 0)
(274.825 63.9192 0)
(275.872 67.3936 0)
(272.91 67.8251 0)
(272.543 64.058 0)
(272.585 61.0914 0)
(272.544 58.7918 0)
(273.577 58.7233 0)
(274.782 58.124 0)
(273.636 56.1364 0)
(272.079 54.2973 0)
(270.203 52.6302 0)
(269.29 53.508 0)
(271.137 55.0647 0)
(272.66 56.8027 0)
(272.132 57.0756 0)
(270.847 55.5404 0)
(269.111 54.1691 0)
(269.198 54.5998 0)
(270.762 55.7596 0)
(271.757 57.0363 0)
(271.579 58.3269 0)
(271.117 60.3979 0)
(269.919 63.1706 0)
(268.97 67.1436 0)
(268.602 72.6168 0)
(271.917 77.6566 0)
(276.011 82.4423 0)
(281.124 87.8585 0)
(287.846 92.2609 0)
(294.37 96.124 0)
(299.907 103.248 0)
(294.418 99.3423 0)
(286.914 96.3036 0)
(278.617 92.1169 0)
(271.98 84.695 0)
(266.072 78.5413 0)
(262.098 83.4339 0)
(271.009 89.7347 0)
(278.29 95.8209 0)
(254.046 74.2263 0)
(261.342 72.1764 0)
(263.379 65.4642 0)
(266.656 61.1414 0)
(269.715 59.335 0)
(268.134 58.0493 0)
(262.703 57.5473 0)
(255.899 63.0821 0)
(248.4 62.2934 0)
(249.075 77.2196 0)
(259.269 53.4349 0)
(267.04 56.2203 0)
(269.401 56.8837 0)
(270.027 56.996 0)
(270.715 57.5929 0)
(271.323 56.7767 0)
(270.655 55.8501 0)
(269.24 55.0192 0)
(269.108 55.6101 0)
(270.439 56.0514 0)
(270.766 56.5332 0)
(270.122 56.7702 0)
(269.867 56.6356 0)
(268.637 56.4306 0)
(267.783 57.3373 0)
(269.103 57.5746 0)
(269.628 57.5661 0)
(269.019 57.2803 0)
(267.476 54.4564 0)
(260.016 47.962 0)
(270.547 46.5845 0)
(281.884 43.197 0)
(310.128 50.6257 0)
(318.567 50.5724 0)
(328.451 54.6823 0)
(329.441 49.9241 0)
(339.735 52.8383 0)
(270.167 55.0413 0)
(269.428 58.0165 0)
(269.091 58.4792 0)
(266.035 56.9503 0)
(266.962 56.0075 0)
(267.432 55.0501 0)
(267.52 54.2688 0)
(267.435 53.6002 0)
(267.283 52.9441 0)
(267.457 52.092 0)
(268.374 51.1135 0)
(270.401 50.3584 0)
(273.292 49.7254 0)
(271.798 48.2824 0)
(270.557 46.9112 0)
(269.48 45.6296 0)
(268.508 44.4427 0)
(267.536 43.3751 0)
(266.462 42.4132 0)
(265.244 41.5097 0)
(262.368 42.2187 0)
(263.608 43.1446 0)
(264.65 44.125 0)
(265.595 45.1871 0)
(266.559 46.3515 0)
(267.636 47.602 0)
(268.888 48.9407 0)
(266.798 49.7128 0)
(265.485 48.3715 0)
(264.353 47.1111 0)
(263.314 48.2623 0)
(264.485 49.4855 0)
(265.85 50.7649 0)
(265.708 51.7388 0)
(264.322 50.544 0)
(263.114 49.3606 0)
(262.048 48.179 0)
(262.28 47.0915 0)
(263.348 45.931 0)
(262.391 44.8559 0)
(261.369 43.8917 0)
(260.11 42.995 0)
(259.005 44.0563 0)
(260.32 44.997 0)
(261.322 45.9974 0)
(261.056 47.0394 0)
(260.031 45.9853 0)
(258.699 44.9907 0)
(256.835 44.0384 0)
(257.314 43.1163 0)
(258.619 42.0866 0)
(261.008 41.2937 0)
(263.99 40.5804 0)
(257.105 44.7511 0)
(259.01 45.7582 0)
(260.26 46.8584 0)
(261.248 48.011 0)
(262.229 49.1984 0)
(263.311 50.3592 0)
(264.509 51.4892 0)
(265.887 52.5701 0)
(265.938 53.4478 0)
(264.546 52.4958 0)
(263.319 51.4363 0)
(263.056 52.5726 0)
(264.341 53.5716 0)
(265.798 54.3929 0)
(265.258 55.4433 0)
(263.724 54.6942 0)
(262.371 53.7393 0)
(261.194 52.6208 0)
(261.931 51.4397 0)
(262.224 50.2915 0)
(261.265 49.0601 0)
(260.323 47.8218 0)
(259.211 46.6003 0)
(259.113 47.5026 0)
(260.093 48.8339 0)
(260.977 50.1677 0)
(260.215 51.3205 0)
(259.364 49.9047 0)
(258.493 48.4677 0)
(257.256 49.4229 0)
(258.041 50.9486 0)
(258.89 52.4091 0)
(259.92 53.7019 0)
(261.162 54.7948 0)
(262.597 55.7175 0)
(264.229 56.4297 0)
(258.171 54.5136 0)
(257.06 53.2884 0)
(256.175 51.8738 0)
(255.441 50.332 0)
(254.606 48.8122 0)
(256.222 47.9568 0)
(257.201 47.0783 0)
(257.556 46.2133 0)
(257.424 45.4554 0)
)
;

boundaryField
{
    bottom
    {
        type            symmetryPlane;
    }
    inlet1
    {
        type            fixedValue;
        value           nonuniform List<vector> 0();
    }
    outlet1
    {
        type            zeroGradient;
    }
    top
    {
        type            zeroGradient;
    }
    wall1
    {
        type            slip;
    }
    bottomEmptyFaces
    {
        type            empty;
    }
    topEmptyFaces
    {
        type            empty;
    }
    procBoundary6to2
    {
        type            processor;
        value           nonuniform List<vector> 
27
(
(294.441 44.8049 0)
(302.6 47.7399 0)
(266.755 58.1358 0)
(268.193 58.4659 0)
(274.752 53.1973 0)
(294.441 44.8049 0)
(283.916 50.8804 0)
(302.6 47.7399 0)
(311.57 54.7277 0)
(320.374 56.8783 0)
(340.243 56.7706 0)
(330.58 58.9453 0)
(340.243 56.7706 0)
(271.497 57.4577 0)
(269.917 59.1472 0)
(268.193 58.4659 0)
(268.674 59.5949 0)
(264.863 57.6979 0)
(259.512 55.5602 0)
(261.08 56.45 0)
(262.892 57.1459 0)
(259.512 55.5602 0)
(256.255 55.0458 0)
(255.005 53.9206 0)
(254.004 52.6238 0)
(253.226 51.1503 0)
(252.484 49.6136 0)
)
;
    }
    procBoundary6to5
    {
        type            processor;
        value           nonuniform List<vector> 
13
(
(265.838 38.0437 0)
(265.248 39.1052 0)
(254.79 43.0076 0)
(255.515 42.0633 0)
(257.079 41.0854 0)
(259.678 40.286 0)
(262.821 39.5674 0)
(254.907 43.7617 0)
(253.32 47.4267 0)
(254.575 46.6436 0)
(255.25 45.8349 0)
(255.402 45.0777 0)
(255.181 44.4319 0)
)
;
    }
    procBoundary6to7
    {
        type            processor;
        value           nonuniform List<vector> 
13
(
(321.658 82.1976 0)
(304.91 104.764 0)
(304.91 104.764 0)
(352.877 51.1625 0)
(319.962 85.2075 0)
(315.074 86.4778 0)
(311.035 88.8303 0)
(307.971 91.4924 0)
(305.059 94.3493 0)
(301.981 97.1078 0)
(300.305 101.125 0)
(300.305 101.125 0)
(351.886 55.4001 0)
)
;
    }
}


// ************************************************************************* //
