/*--------------------------------*- C++ -*----------------------------------*\
| =========                 |                                                 |
| \\      /  F ield         | OpenFOAM: The Open Source CFD Toolbox           |
|  \\    /   O peration     | Version:  2306                                  |
|   \\  /    A nd           | Website:  www.openfoam.com                      |
|    \\/     M anipulation  |                                                 |
\*---------------------------------------------------------------------------*/
FoamFile
{
    version     2.0;
    format      ascii;
    arch        "LSB;label=32;scalar=64";
    class       volScalarField;
    location    "0.1";
    object      p;
}
// * * * * * * * * * * * * * * * * * * * * * * * * * * * * * * * * * * * * * //

dimensions      [1 -1 -2 0 0 0 0];

internalField   nonuniform List<scalar> 
311
(
474116
467508
460088
452213
443453
434238
423606
411346
396252
375494
350322
320992
289773
258391
228567
204135
183507
164607
152951
145537
140269
137622
136901
137010
137545
137969
137861
137158
135655
133835
132266
129861
128189
127708
127414
127303
127205
126976
126900
126828
127554
128987
130642
132720
135890
139610
144053
148168
150952
151715
148855
143878
137808
130490
126551
141595
183691
296733
389133
412802
424265
433605
441158
449315
455177
462394
469510
475538
481648
488302
494675
437182
422744
407410
388665
369518
358356
334151
306961
320034
397642
351700
306678
272997
248792
229853
216999
209396
202858
202749
205347
214563
236243
264839
289139
288137
281129
270441
258925
248929
239607
232042
224646
217483
218329
221142
477385
470819
463433
455721
447009
438086
427618
415658
400745
379005
350498
315649
278161
242402
209841
185122
165962
150214
142833
138836
136302
136005
136409
136862
137514
137366
136552
135065
133047
131274
129900
128739
129507
130600
132453
130130
128650
128153
127823
127393
127661
127924
128906
130066
131616
134200
136065
137348
137854
138091
137267
137017
138606
141489
141271
141006
140032
138237
135918
133478
131448
133964
136796
139881
142914
145190
146313
147268
143304
141836
146018
156960
172434
192093
224254
261379
304055
284412
236334
199224
172708
158648
148779
144720
146954
146497
152020
160665
176072
206510
250134
324531
339141
346549
380950
404396
419302
430972
441342
450041
458713
461683
453063
444651
434451
423272
408752
384121
388509
412318
427152
430714
419727
440320
437416
447658
455560
464324
466965
458130
449637
453328
460977
468941
472726
479578
476990
474629
472037
469339
466357
473714
480343
483547
476724
479504
486660
489656
482129
484480
492650
494676
487056
439845
425130
409060
389335
364652
342669
338308
310028
305735
349955
328208
298689
271136
248627
231000
218834
211283
205040
205723
209484
219707
238604
260758
282033
285114
279203
269627
258879
248948
239680
231640
224658
225248
231161
239440
248587
258287
268117
276265
279421
271962
254154
240226
227620
216027
210475
209420
215014
222250
233161
248268
268551
292547
311936
311024
291097
307738
311418
339231
364846
388154
409747
)
;

boundaryField
{
    bottom
    {
        type            symmetryPlane;
    }
    inlet1
    {
        type            fixedValue;
        value           nonuniform List<scalar> 0();
    }
    outlet1
    {
        type            zeroGradient;
    }
    top
    {
        type            zeroGradient;
    }
    wall1
    {
        type            zeroGradient;
    }
    bottomEmptyFaces
    {
        type            empty;
    }
    topEmptyFaces
    {
        type            empty;
    }
    procBoundary7to3
    {
        type            processor;
        value           nonuniform List<scalar> 
34
(
226575
442092
426600
226473
231330
239005
247882
257096
265404
270078
267404
256821
246935
242646
238120
227409
220177
217655
221079
227710
236915
248517
264007
280827
284613
277258
279184
279184
301063
331094
360269
385910
410007
426600
)
;
    }
    procBoundary7to6
    {
        type            processor;
        value           nonuniform List<scalar> 
13
(
479863
500403
497997
448373
483123
486132
489472
492770
495907
498803
501324
497997
451611
)
;
    }
}


// ************************************************************************* //
