/*--------------------------------*- C++ -*----------------------------------*\
| =========                 |                                                 |
| \\      /  F ield         | OpenFOAM: The Open Source CFD Toolbox           |
|  \\    /   O peration     | Version:  2306                                  |
|   \\  /    A nd           | Website:  www.openfoam.com                      |
|    \\/     M anipulation  |                                                 |
\*---------------------------------------------------------------------------*/
FoamFile
{
    version     2.0;
    format      ascii;
    arch        "LSB;label=32;scalar=64";
    class       volScalarField;
    location    "0.1";
    object      rho;
}
// * * * * * * * * * * * * * * * * * * * * * * * * * * * * * * * * * * * * * //

dimensions      [1 -3 0 0 0 0 0];

internalField   nonuniform List<scalar> 
311
(
3.13535
3.10448
3.06966
3.03252
2.99096
2.94696
2.89578
2.83622
2.76203
2.65832
2.53022
2.37751
2.2104
2.03686
1.8659
1.72049
1.59399
1.47499
1.39914
1.34989
1.31503
1.29766
1.29304
1.29379
1.29739
1.30025
1.29953
1.29485
1.28485
1.27274
1.26228
1.24595
1.23371
1.22825
1.2231
1.21904
1.21669
1.2147
1.21397
1.21328
1.21836
1.22806
1.23903
1.25255
1.2733
1.29762
1.32666
1.3533
1.37105
1.37568
1.35558
1.32157
1.28034
1.2318
1.20621
1.31669
1.59446
2.2549
2.73415
2.85161
2.9081
2.95365
2.99029
3.02969
3.05792
3.09227
3.12613
3.15475
3.18358
3.21492
3.24492
2.97544
2.90472
2.82945
2.73629
2.63954
2.58201
2.45636
2.31243
2.38049
2.77242
2.53938
2.30262
2.11908
1.98326
1.87437
1.79905
1.75401
1.7148
1.71413
1.72976
1.78484
1.91162
2.0742
2.20838
2.20306
2.16479
2.10574
2.04134
1.98485
1.93165
1.88805
1.84505
1.80292
1.80846
1.82652
3.15233
3.1218
3.08727
3.05106
3.00987
2.96743
2.91721
2.85929
2.78618
2.67782
2.53288
2.35095
2.14841
1.94771
1.75716
1.60637
1.48586
1.38392
1.33416
1.30677
1.28969
1.28732
1.29006
1.29315
1.29728
1.29621
1.29065
1.28059
1.26699
1.25507
1.24566
1.23557
1.24102
1.24873
1.26154
1.24215
1.23177
1.22808
1.2258
1.21929
1.22106
1.22268
1.2295
1.23746
1.25245
1.27355
1.28629
1.29516
1.29889
1.30094
1.29594
1.29445
1.30578
1.32151
1.31936
1.3171
1.30993
1.29739
1.28171
1.26519
1.2468
1.26356
1.28231
1.30259
1.32288
1.33821
1.34577
1.35204
1.3335
1.32741
1.35567
1.4289
1.52793
1.65066
1.84372
2.0567
2.29129
2.18563
1.9134
1.69271
1.52735
1.43656
1.37106
1.34298
1.34994
1.34647
1.38456
1.44254
1.54339
1.73385
1.99258
2.40283
2.47829
2.51502
2.69011
2.80676
2.87975
2.93618
2.98585
3.02712
3.06801
3.08453
3.04389
3.00397
2.9551
2.90107
2.83002
2.7078
2.73068
2.84871
2.92114
2.93922
2.88559
2.98573
2.97078
3.01994
3.05754
3.09895
3.11279
3.07093
3.0305
3.04876
3.08522
3.12305
3.14131
3.17368
3.16097
3.14886
3.13511
3.12035
3.1038
3.13808
3.16878
3.18624
3.15469
3.16987
3.20299
3.21889
3.18391
3.19614
3.23427
3.24462
3.2089
2.98939
2.91774
2.83875
2.74063
2.61519
2.50224
2.47849
2.32982
2.30514
2.53488
2.42061
2.2623
2.11064
1.98377
1.88215
1.8108
1.76608
1.72865
1.73276
1.75531
1.81605
1.92625
2.05245
2.17058
2.18765
2.15517
2.10213
2.04192
1.98568
1.93268
1.88635
1.84568
1.85065
1.88535
1.9332
1.98577
2.04098
2.0963
2.14171
2.15921
2.11786
2.01789
1.93806
1.86464
1.79636
1.76327
1.75697
1.79043
1.83324
1.89726
1.98464
2.09954
2.23246
2.33748
2.33506
2.22751
2.319
2.33759
2.48604
2.61845
2.73639
2.84434
)
;

boundaryField
{
    bottom
    {
        type            symmetryPlane;
    }
    inlet1
    {
        type            calculated;
        value           nonuniform List<scalar> 0();
    }
    outlet1
    {
        type            calculated;
        value           nonuniform List<scalar> 9(1.21904 1.2231 1.22825 1.23371 1.21669 1.24595 1.82652 1.80846 1.80292);
    }
    top
    {
        type            calculated;
        value           nonuniform List<scalar> 
32
(
3.13535
3.10448
3.06966
3.03252
2.99096
2.94696
2.89578
2.83622
2.76203
2.65832
2.53022
2.37751
2.2104
2.03686
1.8659
1.72049
1.59399
1.47499
1.39914
1.34989
1.31503
1.29766
1.29304
1.29379
1.29739
1.30025
1.29953
1.29485
1.28485
1.27274
1.26228
1.24595
)
;
    }
    wall1
    {
        type            calculated;
        value           nonuniform List<scalar> 
68
(
3.24492
3.21492
3.18358
3.12613
3.15475
3.09227
3.02969
3.05792
2.99029
2.95365
2.85161
2.9081
2.73415
2.2549
1.59446
1.31669
1.20621
1.2318
1.28034
1.32157
1.35558
1.37568
1.37105
1.3533
1.32666
1.29762
1.2733
1.25255
1.23903
1.22806
1.21836
1.21328
1.21397
1.2147
1.21669
2.97544
2.90472
2.82945
2.73629
2.63954
2.58201
2.45636
2.31243
2.38049
2.77242
2.53938
2.30262
2.11908
1.98326
1.87437
1.79905
1.75401
1.7148
1.71413
1.72976
1.78484
1.91162
2.0742
2.20838
2.20306
2.16479
2.10574
2.04134
1.98485
1.93165
1.88805
1.84505
1.80292
)
;
    }
    bottomEmptyFaces
    {
        type            empty;
    }
    topEmptyFaces
    {
        type            empty;
    }
    procBoundary7to3
    {
        type            processor;
        value           nonuniform List<scalar> 
34
(
1.86071
3.00233
2.92723
1.86011
1.88872
1.93372
1.98487
2.03756
2.08464
2.11099
2.09618
2.03653
1.98014
1.9553
1.92893
1.86651
1.82387
1.80892
1.82931
1.86839
1.92227
1.98927
2.07718
2.17127
2.19229
2.15231
2.16343
2.16343
2.2848
2.44532
2.59711
2.72742
2.84769
2.92723
)
;
    }
    procBoundary7to6
    {
        type            processor;
        value           nonuniform List<scalar> 
13
(
3.16204
3.27174
3.2604
3.0299
3.17887
3.19545
3.21345
3.23104
3.24768
3.2628
3.2755
3.2604
3.04618
)
;
    }
}


// ************************************************************************* //
