/*--------------------------------*- C++ -*----------------------------------*\
| =========                 |                                                 |
| \\      /  F ield         | OpenFOAM: The Open Source CFD Toolbox           |
|  \\    /   O peration     | Version:  2306                                  |
|   \\  /    A nd           | Website:  www.openfoam.com                      |
|    \\/     M anipulation  |                                                 |
\*---------------------------------------------------------------------------*/
FoamFile
{
    version     2.0;
    format      ascii;
    arch        "LSB;label=32;scalar=64";
    class       volScalarField;
    location    "0.1";
    object      T;
}
// * * * * * * * * * * * * * * * * * * * * * * * * * * * * * * * * * * * * * //

dimensions      [0 0 0 1 0 0 0];

internalField   nonuniform List<scalar> 
311
(
526.699
524.521
522.053
519.402
516.418
513.236
509.518
505.161
499.697
491.995
482.251
470.256
456.616
441.855
426.666
413.265
400.99
388.707
380.763
375.525
371.527
369.394
368.773
368.851
369.264
369.588
369.503
368.946
367.745
366.265
364.969
363.032
361.909
362.154
362.845
363.733
364.155
364.096
364.097
364.098
364.655
365.839
367.254
369.066
371.724
374.742
378.204
381.35
383.489
384.129
382.475
379.201
374.899
368.978
365.431
374.564
401.271
458.357
495.724
504.215
508.151
511.327
513.86
516.554
518.463
520.833
523.12
525.031
526.96
529.031
530.982
511.77
506.917
501.526
494.741
487.609
483.416
473.821
462.357
468.268
499.571
482.402
463.9
448.72
436.94
427.129
420.124
415.817
412.044
411.985
413.491
418.717
430.449
444.729
456.034
455.551
452.329
447.333
441.796
436.829
432.05
428.073
424.088
420.158
420.501
421.706
527.474
525.307
522.848
520.251
517.288
514.212
510.566
506.34
500.982
492.977
481.986
467.654
450.965
433.488
415.952
401.399
389.041
378.062
372.894
370.056
368.113
367.986
368.295
368.637
369.215
369.122
368.515
367.364
365.758
364.313
363.225
362.915
363.479
364.282
365.701
364.896
363.785
363.468
363.204
363.917
364.153
364.419
365.18
366.097
366.026
367.029
368.442
369.372
369.666
369.72
368.932
368.682
369.724
372.921
372.953
372.893
372.344
371.124
369.361
367.468
367.217
369.281
371.573
374.037
376.285
377.901
378.683
379.386
374.308
372.175
375.161
382.607
393.082
405.339
423.652
442.654
462.207
453.246
430.212
409.943
393.857
384.658
377.963
375.339
379.166
378.963
382.431
387.933
397.355
414.852
437.24
470.431
476.642
479.939
493.244
501.841
507.15
511.247
514.84
517.829
520.772
521.337
518.434
515.569
512.074
508.188
503.076
494.1
495.558
504.136
509.323
510.413
506.636
513.667
512.848
516.312
518.965
521.88
522.515
519.617
516.787
517.909
520.423
523.002
524.158
526.333
525.596
525.008
524.43
523.899
523.345
525.796
527.987
528.597
526.349
526.883
529.218
529.845
527.432
527.975
530.55
531.033
528.672
512.485
507.504
501.908
494.809
485.667
476.991
475.432
463.492
461.968
480.86
472.267
459.868
447.441
436.536
427.485
420.927
416.697
413.137
413.531
415.68
421.385
431.448
442.516
452.572
453.947
451.235
446.753
441.593
436.679
431.951
427.715
423.965
423.936
427.059
431.403
436.026
440.785
445.486
449.292
450.743
447.275
438.696
431.734
425.186
418.87
415.762
415.163
418.285
422.266
428.048
435.714
445.518
456.432
464.817
463.939
455.179
462.215
464.021
475.282
485.322
494.072
501.763
)
;

boundaryField
{
    bottom
    {
        type            symmetryPlane;
    }
    inlet1
    {
        type            fixedValue;
        value           nonuniform List<scalar> 0();
    }
    outlet1
    {
        type            zeroGradient;
    }
    top
    {
        type            zeroGradient;
    }
    wall1
    {
        type            zeroGradient;
    }
    bottomEmptyFaces
    {
        type            empty;
    }
    topEmptyFaces
    {
        type            empty;
    }
    procBoundary7to3
    {
        type            processor;
        value           nonuniform List<scalar> 
34
(
424.129
512.883
507.606
424.073
426.608
430.504
434.988
439.49
443.445
445.622
444.327
439.242
434.361
432.24
429.975
424.367
420.478
419.095
420.944
424.5
429.282
435.138
442.696
450.495
452.19
448.687
449.482
449.482
458.958
471.606
483.17
492.83
501.489
507.606
)
;
    }
    procBoundary7to6
    {
        type            processor;
        value           nonuniform List<scalar> 
13
(
528.583
532.727
532.011
515.437
529.357
529.891
530.542
531.21
531.852
532.48
533.095
532.011
516.383
)
;
    }
}


// ************************************************************************* //
