/*--------------------------------*- C++ -*----------------------------------*\
| =========                 |                                                 |
| \\      /  F ield         | OpenFOAM: The Open Source CFD Toolbox           |
|  \\    /   O peration     | Version:  2306                                  |
|   \\  /    A nd           | Website:  www.openfoam.com                      |
|    \\/     M anipulation  |                                                 |
\*---------------------------------------------------------------------------*/
FoamFile
{
    version     2.0;
    format      ascii;
    arch        "LSB;label=32;scalar=64";
    class       volVectorField;
    location    "0.1";
    object      U;
}
// * * * * * * * * * * * * * * * * * * * * * * * * * * * * * * * * * * * * * //

dimensions      [0 1 -1 0 0 0 0];

internalField   nonuniform List<vector> 
311
(
(321.658 82.1976 0)
(326.909 85.762 0)
(332.53 89.1673 0)
(338.417 92.6655 0)
(345.084 96.2255 0)
(352.657 99.5378 0)
(361.58 103.444 0)
(372.605 106.633 0)
(386.395 111.425 0)
(406.101 115.321 0)
(430.368 117.098 0)
(457.508 116.729 0)
(488.18 112.839 0)
(519.621 106.001 0)
(549.166 96.4454 0)
(578.222 78.5634 0)
(601.004 65.9946 0)
(618.844 57.1446 0)
(634.658 37.067 0)
(642.942 21.3019 0)
(648.565 21.1423 0)
(648.891 22.1763 0)
(648.304 19.558 0)
(648.215 16.2174 0)
(648.853 14.727 0)
(648.445 15.073 0)
(648.464 15.6421 0)
(649.068 15.6134 0)
(650.472 14.5217 0)
(652.804 10.9128 0)
(654.238 8.52571 0)
(656.359 6.07715 0)
(656.885 2.48707 0)
(658.906 0.356193 0)
(660.921 -0.407584 0)
(663.632 -0.92035 0)
(664.74 -0.224561 0)
(664.885 -0.231412 0)
(664.779 0.33166 0)
(664.939 1.37458 0)
(665.009 2.93401 0)
(664.274 2.57464 0)
(662.457 2.55831 0)
(660.925 4.17993 0)
(657.929 3.8507 0)
(653.262 4.1244 0)
(647.283 3.07356 0)
(641.644 1.39327 0)
(638.047 -1.60596 0)
(636.615 -3.82757 0)
(639.348 -5.94729 0)
(644.718 -5.64218 0)
(647.232 0.154304 0)
(648.881 25.3864 0)
(648.708 59.9374 0)
(627.512 105.563 0)
(567.309 142.103 0)
(469.42 144.648 0)
(394.986 137.663 0)
(373.246 128.474 0)
(363.048 127.845 0)
(354.18 122.734 0)
(345.803 120.636 0)
(339.329 116.836 0)
(333.502 117.306 0)
(327.659 114.027 0)
(322.569 111.344 0)
(318.303 111.393 0)
(313.771 108.696 0)
(308.601 107.423 0)
(304.91 104.764 0)
(352.877 51.1625 0)
(366.502 53.0564 0)
(381.149 55.6097 0)
(399.349 58.7602 0)
(419.338 63.563 0)
(430.329 61.8819 0)
(451.083 64.5622 0)
(476.076 66.4647 0)
(460.65 60.2749 0)
(403.672 38.2587 0)
(447.614 15.32 0)
(482.856 0.379211 0)
(510.864 -3.30903 0)
(532.159 -4.19211 0)
(549.356 -4.3281 0)
(560.661 -4.27767 0)
(566.903 -3.42157 0)
(573.525 -2.54685 0)
(573.807 -1.41566 0)
(571.463 0.246767 0)
(561.919 2.35066 0)
(539.758 5.08491 0)
(513.892 6.42098 0)
(493.183 4.53649 0)
(495.458 1.01589 0)
(501.879 -0.629893 0)
(511.798 -1.47485 0)
(522.5 -2.06978 0)
(531.716 -2.12424 0)
(540.143 -2.26226 0)
(547.128 -1.84559 0)
(554.006 -2.1168 0)
(560.519 -1.65817 0)
(560.111 -3.89147 0)
(558.325 -5.9291 0)
(319.962 85.2075 0)
(325.131 88.8671 0)
(330.732 92.3046 0)
(336.472 96.0001 0)
(343.151 99.5858 0)
(350.536 103.191 0)
(359.424 107.235 0)
(370.287 110.682 0)
(384.09 115.955 0)
(405.027 119.321 0)
(431.266 119.53 0)
(463.872 114.671 0)
(498.791 103.842 0)
(533.888 88.3797 0)
(564.75 70.9611 0)
(589.292 49.2015 0)
(608.645 35.8264 0)
(620.77 32.0902 0)
(632.593 17.9663 0)
(639.189 10.6568 0)
(645.895 12.7474 0)
(646.055 17.2153 0)
(645.79 18.0534 0)
(645.725 16.9955 0)
(646.721 15.5975 0)
(647.6 14.4329 0)
(648.836 13.6127 0)
(650.476 12.1101 0)
(652.404 9.5838 0)
(654.625 5.37251 0)
(655.547 3.33384 0)
(657.753 0.270978 0)
(657.051 2.53962 0)
(655.27 6.06224 0)
(653.912 8.04179 0)
(658.555 4.90359 0)
(658.969 3.45016 0)
(659.812 0.758566 0)
(660.049 -0.713462 0)
(663.632 -1.39024 0)
(663.402 -1.05714 0)
(663.547 0.636322 0)
(663.386 1.7385 0)
(662.458 2.77118 0)
(657.449 6.02749 0)
(651.734 10.5851 0)
(649.035 13.9367 0)
(646.932 16.7119 0)
(645.046 19.0798 0)
(644.315 19.6832 0)
(644.733 14.3516 0)
(646.52 7.32514 0)
(642.87 3.21781 0)
(641.71 2.81791 0)
(644.743 8.14798 0)
(645.609 15.3148 0)
(645.516 18.2839 0)
(647.721 17.3062 0)
(651.226 13.9757 0)
(655.014 9.73391 0)
(659.642 6.76188 0)
(656.511 9.09734 0)
(652.833 11.0936 0)
(649.594 12.6727 0)
(646.027 12.2948 0)
(642.56 10.3515 0)
(639.188 4.94074 0)
(637.95 -1.28115 0)
(636.52 -0.87113 0)
(638.599 3.21518 0)
(633.518 8.21856 0)
(623.586 11.1392 0)
(608.687 20.6433 0)
(584.939 49.7068 0)
(553.416 73.4326 0)
(517.177 94.5639 0)
(473.595 113.548 0)
(492.677 110.38 0)
(541.37 79.3105 0)
(574.19 54.0845 0)
(598.789 29.9754 0)
(615.535 4.65337 0)
(627.546 -0.505964 0)
(632.486 -2.16791 0)
(640.104 -8.28457 0)
(646.525 -15.4056 0)
(642.127 -19.2515 0)
(637.247 -3.1443 0)
(622.38 22.047 0)
(589.904 53.6282 0)
(529.84 99.2743 0)
(455.082 127.977 0)
(440.866 125.142 0)
(433.258 121.715 0)
(400.702 122.702 0)
(378.114 118.594 0)
(364.603 112.839 0)
(353.954 109.184 0)
(345.152 104.967 0)
(338.044 101.07 0)
(331.309 97.4777 0)
(327.57 100.191 0)
(334.579 103.75 0)
(341.636 107.976 0)
(350.677 112.352 0)
(361.353 116.088 0)
(374.92 122.519 0)
(399.52 127.542 0)
(395.333 131.737 0)
(370.652 126.388 0)
(357.948 118.533 0)
(355.356 120.739 0)
(365.778 126.597 0)
(345.356 117.251 0)
(347.41 115.005 0)
(338.492 110.657 0)
(331.492 106.284 0)
(324.417 102.871 0)
(321.766 105.587 0)
(329.339 108.766 0)
(336.207 114.001 0)
(334.075 115.053 0)
(327.095 110.849 0)
(319.818 108.802 0)
(318.571 110.252 0)
(313.523 106.553 0)
(313.963 103.862 0)
(316.21 101.206 0)
(318.972 98.6183 0)
(321.998 96.0603 0)
(325.769 93.6114 0)
(320.129 90.1963 0)
(315.074 86.4778 0)
(311.035 88.8303 0)
(316.169 92.6608 0)
(313.161 95.329 0)
(307.971 91.4924 0)
(305.059 94.3493 0)
(310.437 98.0682 0)
(307.877 100.81 0)
(301.981 97.1078 0)
(300.305 101.125 0)
(307.088 103.899 0)
(351.886 55.4001 0)
(366.396 56.9698 0)
(381.993 59.4828 0)
(401.884 61.9644 0)
(423.919 61.6061 0)
(445.477 61.9172 0)
(448.636 58.7079 0)
(474.769 62.5774 0)
(477.434 54.3032 0)
(431.7 17.7243 0)
(455.913 -3.78083 0)
(482.192 -11.166 0)
(507.09 -12.649 0)
(528.179 -12.637 0)
(544.665 -12.1778 0)
(557.322 -9.34047 0)
(565.298 -6.52228 0)
(572.5 -2.6466 0)
(571.638 1.36443 0)
(568.466 5.72818 0)
(558.848 12.0249 0)
(541.587 18.2003 0)
(523.359 14.5667 0)
(499.55 3.77572 0)
(498.372 -1.95099 0)
(503.133 -4.56315 0)
(511.544 -5.72949 0)
(521.487 -6.15009 0)
(530.773 -6.15297 0)
(539.474 -6.29057 0)
(547.162 -5.84951 0)
(553.035 -6.94539 0)
(552.777 -10.8612 0)
(548.474 -10.4589 0)
(540.418 -10.8463 0)
(532.068 -10.4969 0)
(523.32 -10.3388 0)
(514.788 -9.33698 0)
(508.24 -7.06671 0)
(505.65 -0.987162 0)
(511.859 9.63014 0)
(527.573 22.6724 0)
(539.96 28.3539 0)
(550.068 20.445 0)
(562.588 9.07203 0)
(566.61 1.99451 0)
(568.39 -5.19329 0)
(561.808 -10.8787 0)
(554.717 -15.1374 0)
(543.487 -19.9427 0)
(530.035 -21.2754 0)
(511.87 -20.195 0)
(491.976 -13.7877 0)
(476.899 -1.51575 0)
(472.319 24.2144 0)
(493.583 54.6464 0)
(477.441 57.5676 0)
(473.837 62.1791 0)
(449.596 61.2828 0)
(426.141 64.7174 0)
(404.309 64.5555 0)
(384.372 63.5374 0)
)
;

boundaryField
{
    bottom
    {
        type            symmetryPlane;
    }
    inlet1
    {
        type            fixedValue;
        value           nonuniform List<vector> 0();
    }
    outlet1
    {
        type            zeroGradient;
    }
    top
    {
        type            zeroGradient;
    }
    wall1
    {
        type            slip;
    }
    bottomEmptyFaces
    {
        type            empty;
    }
    topEmptyFaces
    {
        type            empty;
    }
    procBoundary7to3
    {
        type            processor;
        value           nonuniform List<vector> 
34
(
(554.321 -6.35305 0)
(353.115 59.3376 0)
(367.946 60.7486 0)
(553.99 -13.4984 0)
(549.237 -15.2442 0)
(541.578 -15.6646 0)
(533.168 -15.3351 0)
(524.929 -14.906 0)
(518.243 -13.1654 0)
(515.462 -8.67561 0)
(516.469 2.10902 0)
(526.606 17.4354 0)
(535.606 28.8112 0)
(540.601 32.4922 0)
(543.536 26.4575 0)
(552.467 16.3927 0)
(560.022 3.92617 0)
(562.427 -5.90149 0)
(559.147 -14.4046 0)
(552.355 -20.2609 0)
(542.34 -26.929 0)
(532.107 -30.4918 0)
(519.327 -30.273 0)
(507.941 -20.4935 0)
(500.959 1.67117 0)
(507.309 31.4511 0)
(502.975 53.2641 0)
(502.975 53.2641 0)
(486.269 52.1615 0)
(457.074 60.4965 0)
(431.529 65.8752 0)
(407.804 68.7812 0)
(385.977 68.8449 0)
(367.946 60.7486 0)
)
;
    }
    procBoundary7to6
    {
        type            processor;
        value           nonuniform List<vector> 
13
(
(316.181 78.7851 0)
(300.085 104.841 0)
(299.907 103.248 0)
(341.903 49.5809 0)
(314.545 81.7389 0)
(309.722 83.0164 0)
(305.614 85.3371 0)
(302.534 87.9537 0)
(299.782 90.6966 0)
(296.415 93.1334 0)
(294.37 96.124 0)
(299.907 103.248 0)
(339.735 52.8383 0)
)
;
    }
}


// ************************************************************************* //
