/*--------------------------------*- C++ -*----------------------------------*\
| =========                 |                                                 |
| \\      /  F ield         | OpenFOAM: The Open Source CFD Toolbox           |
|  \\    /   O peration     | Version:  2306                                  |
|   \\  /    A nd           | Website:  www.openfoam.com                      |
|    \\/     M anipulation  |                                                 |
\*---------------------------------------------------------------------------*/
FoamFile
{
    version     2.0;
    format      ascii;
    arch        "LSB;label=32;scalar=64";
    class       volScalarField;
    location    "0.02";
    object      p;
}
// * * * * * * * * * * * * * * * * * * * * * * * * * * * * * * * * * * * * * //

dimensions      [1 -1 -2 0 0 0 0];

internalField   nonuniform List<scalar> 
285
(
534946
534667
534697
534142
532315
529833
527100
524483
522146
520091
518360
517036
516110
514944
512658
508992
504507
499575
494373
489017
483591
478190
499811
505019
510640
516212
522662
528799
537908
549146
567398
570411
573315
513394
495589
490132
485355
478743
471197
463673
449287
536003
535765
535844
535349
533564
531100
528380
525773
523454
521435
519760
518511
517689
516657
514558
511153
506966
502297
497313
492116
486812
481507
484302
489547
494777
499898
504750
507663
502834
497684
492431
487167
490302
493672
497103
502698
499055
495626
500943
506135
510929
514458
509732
504512
508410
513625
518266
522709
518917
515378
512110
509234
513175
516371
518394
519387
520140
521312
522913
524919
523482
522476
521853
520893
518937
515915
519030
521784
523544
526175
524682
522337
525642
527328
528377
528615
526781
524310
524654
525406
526646
528128
527223
526853
528523
528481
529125
529958
529510
529909
530240
530343
529910
529238
526985
522263
517581
512449
505949
500215
497436
502781
508952
515838
521364
527046
530908
524111
518811
538831
532652
533508
532345
531766
532945
534784
539985
548725
546803
535753
533645
532051
531792
531156
530863
530353
530728
531579
531136
531486
531973
532048
532557
533500
532761
532230
531740
533482
536620
525811
518134
488483
478308
468440
463915
452848
530025
530772
531884
534477
533434
532407
531586
530958
530319
529509
528257
526709
524863
527115
529655
532313
534723
536394
536758
536613
537568
537714
537453
535940
533641
531143
528788
530165
532347
534696
535374
533186
531197
531847
533684
535727
537785
537501
536901
538319
538559
538425
539200
539252
538922
539311
539842
539914
540235
539429
538609
537753
536793
541184
540827
540598
539791
538120
536089
534130
532375
532920
534631
536536
537208
535342
533686
534687
536279
538091
540043
539187
538535
540323
541458
541955
543364
542518
541075
542002
543695
544888
546246
544744
542880
540898
539002
537263
535735
541522
543455
545406
547187
548543
547249
545630
543906
542368
)
;

boundaryField
{
    bottom
    {
        type            symmetryPlane;
    }
    inlet1
    {
        type            fixedValue;
        value           nonuniform List<scalar> 0();
    }
    outlet1
    {
        type            zeroGradient;
    }
    top
    {
        type            zeroGradient;
    }
    wall1
    {
        type            zeroGradient;
    }
    bottomEmptyFaces
    {
        type            empty;
    }
    topEmptyFaces
    {
        type            empty;
    }
    procBoundary6to2
    {
        type            processor;
        value           nonuniform List<scalar> 
27
(
506328
496721
534088
532966
524753
506328
516367
496721
490163
481805
456371
470986
456371
527687
529212
532966
530953
535261
539728
538076
536585
539728
541870
543685
545617
547562
549292
)
;
    }
    procBoundary6to5
    {
        type            processor;
        value           nonuniform List<scalar> 
13
(
535694
536723
541020
540176
539327
538472
537490
541989
549526
548029
546335
544629
543147
)
;
    }
    procBoundary6to7
    {
        type            processor;
        value           nonuniform List<scalar> 
13
(
472731
494596
494596
436869
476114
479000
481910
485009
488304
491715
494309
494309
440056
)
;
    }
}


// ************************************************************************* //
