/*--------------------------------*- C++ -*----------------------------------*\
| =========                 |                                                 |
| \\      /  F ield         | OpenFOAM: The Open Source CFD Toolbox           |
|  \\    /   O peration     | Version:  2306                                  |
|   \\  /    A nd           | Website:  www.openfoam.com                      |
|    \\/     M anipulation  |                                                 |
\*---------------------------------------------------------------------------*/
FoamFile
{
    version     2.0;
    format      ascii;
    arch        "LSB;label=32;scalar=64";
    class       volScalarField;
    location    "0.02";
    object      T;
}
// * * * * * * * * * * * * * * * * * * * * * * * * * * * * * * * * * * * * * //

dimensions      [0 0 0 1 0 0 0];

internalField   nonuniform List<scalar> 
285
(
546.367
546.235
546.196
545.979
545.397
544.627
543.775
542.953
542.216
541.565
541.008
540.57
540.252
539.869
539.143
537.983
536.561
534.997
533.344
531.63
529.877
528.114
532.536
534.126
535.832
537.516
539.426
541.244
543.948
547.255
552.438
553.226
554.06
536.351
530.869
529.14
527.602
525.432
523.046
520.573
515.842
546.499
546.374
546.345
546.139
545.563
544.801
543.957
543.143
542.414
541.774
541.23
540.806
540.508
540.15
539.472
538.394
537.068
535.585
533.996
532.329
530.614
528.88
529.316
531.032
532.727
534.373
535.923
536.424
534.885
533.231
531.528
529.803
530.419
531.142
531.941
533.712
532.889
532.162
533.888
535.555
537.082
537.835
536.324
534.65
535.513
537.167
538.649
540.072
539.251
538.488
537.831
537.346
538.589
539.595
540.256
540.617
540.905
541.315
541.844
542.07
541.588
541.227
540.978
540.625
539.983
539.029
539.642
540.523
541.109
541.616
541.108
540.344
541.032
541.606
541.99
542.127
541.861
541.402
541.563
541.843
542.263
542.427
542.105
541.939
542.163
542.203
542.463
542.453
542.236
542.293
542.298
542.255
542.043
541.757
540.999
539.513
538.059
536.487
534.506
532.741
531.823
533.465
535.341
537.395
539.032
540.707
541.784
539.831
538.277
543.996
542.361
542.634
542.405
542.34
542.346
542.784
544.273
546.819
546.368
542.868
542.216
541.807
542.118
542.265
542.3
542.215
542.411
542.344
542.135
542.165
541.901
542.022
542.253
542.107
541.806
541.57
541.326
541.794
543.103
539.433
537.055
528.123
524.902
521.672
520.517
516.869
540.431
540.692
541.092
542.481
542.589
542.659
542.733
542.819
542.873
542.879
542.787
542.648
542.467
543.176
543.97
544.793
545.536
546.08
546.248
546.258
546.146
546.145
546.014
545.521
544.813
544.042
543.306
543.389
544.066
544.789
544.721
544.043
543.418
543.374
543.962
544.601
545.234
545.375
545.468
545.932
546.05
546.048
545.985
545.965
545.828
545.709
545.9
545.954
546.078
546.089
546.14
546.246
546.367
546.141
546.011
545.913
545.641
545.119
544.486
543.865
543.295
543.187
543.749
544.365
544.261
543.649
543.099
543.032
543.569
544.169
544.81
544.904
545.003
545.572
545.948
546.134
546.302
545.996
545.517
545.453
546.014
546.427
546.45
545.945
545.328
544.675
544.045
543.46
542.934
544.441
545.084
545.732
546.327
546.789
546.811
546.716
546.511
546.289
)
;

boundaryField
{
    bottom
    {
        type            symmetryPlane;
    }
    inlet1
    {
        type            fixedValue;
        value           nonuniform List<scalar> 0();
    }
    outlet1
    {
        type            zeroGradient;
    }
    top
    {
        type            zeroGradient;
    }
    wall1
    {
        type            zeroGradient;
    }
    bottomEmptyFaces
    {
        type            empty;
    }
    topEmptyFaces
    {
        type            empty;
    }
    procBoundary6to2
    {
        type            processor;
        value           nonuniform List<scalar> 
27
(
533.555
530.641
541.87
541.476
538.507
533.555
536.074
530.641
527.975
525.43
517.69
521.978
517.69
539.422
539.912
541.476
540.479
542.292
543.838
543.275
542.76
543.838
544.118
544.721
545.362
546.008
546.591
)
;
    }
    procBoundary6to5
    {
        type            processor;
        value           nonuniform List<scalar> 
13
(
546.638
546.768
546.332
546.343
546.394
546.51
546.633
546.398
547.146
547.116
546.986
546.766
546.546
)
;
    }
    procBoundary6to7
    {
        type            processor;
        value           nonuniform List<scalar> 
13
(
526.312
530.942
530.942
511.714
527.099
527.561
528.063
528.674
529.397
530.231
530.899
530.899
512.617
)
;
    }
}


// ************************************************************************* //
