/*--------------------------------*- C++ -*----------------------------------*\
| =========                 |                                                 |
| \\      /  F ield         | OpenFOAM: The Open Source CFD Toolbox           |
|  \\    /   O peration     | Version:  2306                                  |
|   \\  /    A nd           | Website:  www.openfoam.com                      |
|    \\/     M anipulation  |                                                 |
\*---------------------------------------------------------------------------*/
FoamFile
{
    version     2.0;
    format      ascii;
    arch        "LSB;label=32;scalar=64";
    class       volVectorField;
    location    "0.02";
    object      U;
}
// * * * * * * * * * * * * * * * * * * * * * * * * * * * * * * * * * * * * * //

dimensions      [0 1 -1 0 0 0 0];

internalField   nonuniform List<vector> 
285
(
(266.556 39.0908 0)
(268.354 40.1985 0)
(270.335 41.3034 0)
(272.077 42.4177 0)
(273.047 43.4724 0)
(273.602 44.526 0)
(274.061 45.6571 0)
(274.677 46.8133 0)
(275.594 47.9817 0)
(276.826 49.2362 0)
(278.492 50.5945 0)
(280.689 52.1396 0)
(283.484 53.8902 0)
(286.557 55.9654 0)
(289.506 58.2421 0)
(292.055 60.7372 0)
(294.822 63.3827 0)
(297.758 66.3395 0)
(301.312 69.3746 0)
(305.178 72.6791 0)
(309.767 75.8793 0)
(314.71 79.3262 0)
(299.615 104.635 0)
(294.611 101.355 0)
(288.445 100.041 0)
(284.267 97.0913 0)
(279.789 97.2079 0)
(274.18 92.7066 0)
(266.422 90.2679 0)
(260.351 83.2675 0)
(251.339 76.5426 0)
(247.82 57.2831 0)
(251.139 44.8886 0)
(283.503 30.3452 0)
(294.533 37.0666 0)
(300.367 43.4615 0)
(306.833 47.2903 0)
(315.213 51.2229 0)
(322.297 50.7154 0)
(331.085 51.015 0)
(342.513 49.9982 0)
(265.891 40.0324 0)
(267.702 41.1718 0)
(269.69 42.3165 0)
(271.446 43.4661 0)
(272.429 44.5468 0)
(272.988 45.6099 0)
(273.448 46.7411 0)
(274.051 47.8938 0)
(274.934 49.0631 0)
(276.102 50.3348 0)
(277.681 51.7328 0)
(279.771 53.341 0)
(282.449 55.179 0)
(285.382 57.3808 0)
(288.181 59.864 0)
(290.618 62.6251 0)
(293.306 65.564 0)
(296.185 68.7851 0)
(299.701 72.0446 0)
(303.553 75.5185 0)
(308.136 78.838 0)
(313.058 82.3844 0)
(308.279 83.56 0)
(303.382 79.9711 0)
(298.825 76.6018 0)
(295.054 73.0392 0)
(291.692 69.6614 0)
(287.389 71.248 0)
(290.713 74.7782 0)
(294.545 78.4638 0)
(299.225 81.8965 0)
(304.255 85.5353 0)
(301.225 87.8377 0)
(298.666 90.4199 0)
(295.372 92.8918 0)
(289.79 89.3588 0)
(293.378 86.8493 0)
(296.05 84.1966 0)
(291.198 80.6674 0)
(287.26 76.7855 0)
(283.968 73.0274 0)
(281.095 74.9808 0)
(284.326 79.0535 0)
(288.349 83.2079 0)
(284.423 85.574 0)
(280.379 81.0546 0)
(277.302 76.6834 0)
(274.735 72.1993 0)
(278.415 70.9294 0)
(281.341 69.3266 0)
(284.767 67.755 0)
(289.012 66.3111 0)
(286.607 63.214 0)
(284.518 60.3348 0)
(282.119 57.7878 0)
(279.514 55.5907 0)
(277.078 53.7822 0)
(275.16 52.2175 0)
(273.704 50.8598 0)
(271.089 51.8657 0)
(272.488 53.2267 0)
(274.285 54.7898 0)
(276.489 56.6223 0)
(278.762 58.8494 0)
(280.775 61.4655 0)
(282.569 64.4736 0)
(279.365 65.7648 0)
(277.865 62.5669 0)
(276.25 59.862 0)
(274.681 60.6456 0)
(275.676 63.4412 0)
(276.768 66.9012 0)
(273.9 67.5665 0)
(273.49 63.7574 0)
(273.202 60.8667 0)
(272.567 58.6157 0)
(273.37 58.3743 0)
(274.336 57.6236 0)
(272.372 55.8177 0)
(270.681 54.2961 0)
(269.307 52.9497 0)
(268.675 53.8299 0)
(270.036 55.1183 0)
(271.666 56.5971 0)
(271.343 56.9205 0)
(269.823 55.5598 0)
(268.554 54.3472 0)
(268.617 54.6928 0)
(269.831 55.7733 0)
(271.1 56.9947 0)
(271.671 58.4707 0)
(271.706 60.5102 0)
(270.953 63.21 0)
(269.933 67.2542 0)
(269.365 72.8438 0)
(272.118 78.1111 0)
(275.62 82.8121 0)
(280.308 88.025 0)
(286.685 92.3706 0)
(293.392 95.9555 0)
(299.383 103.117 0)
(293.518 99.2539 0)
(286.164 96.2707 0)
(278.08 92.2069 0)
(271.707 85.2255 0)
(266.279 79.3983 0)
(262.487 84.3953 0)
(271.029 90.1699 0)
(277.833 95.8854 0)
(254.955 75.1279 0)
(262.121 72.7935 0)
(264.257 65.9315 0)
(267.708 61.5955 0)
(270.201 59.7104 0)
(268.46 58.6265 0)
(263.756 58.325 0)
(256.844 63.793 0)
(249.46 63.0504 0)
(250.004 77.9511 0)
(260.286 54.3459 0)
(267.293 56.8455 0)
(269.308 57.1272 0)
(270.03 57.4947 0)
(270.822 58.0385 0)
(270.76 56.9969 0)
(269.719 55.996 0)
(268.575 55.0568 0)
(268.296 55.5856 0)
(269.405 56.3033 0)
(270.248 56.9544 0)
(269.519 57.0985 0)
(268.797 56.7027 0)
(267.692 56.2594 0)
(266.805 56.939 0)
(267.959 57.2412 0)
(268.861 57.3386 0)
(268.986 57.0925 0)
(267.557 54.9164 0)
(260.903 48.8118 0)
(271.043 46.813 0)
(282.111 43.3197 0)
(311.403 51.5851 0)
(319.797 51.8859 0)
(329.424 56.2404 0)
(330.294 50.9459 0)
(340.294 53.996 0)
(269.973 54.7426 0)
(269.174 57.3877 0)
(268.278 57.8881 0)
(265.555 56.5455 0)
(266.531 55.7381 0)
(267.131 54.9211 0)
(267.384 54.2488 0)
(267.429 53.7101 0)
(267.37 53.2 0)
(267.5 52.5719 0)
(268.166 51.6671 0)
(269.988 50.6099 0)
(272.606 49.6225 0)
(271.742 48.4727 0)
(271.124 47.3224 0)
(270.631 46.1733 0)
(270.045 45.0706 0)
(269.008 43.9171 0)
(267.217 42.6929 0)
(265.217 41.4884 0)
(262.033 42.1602 0)
(264.089 43.3844 0)
(265.963 44.6431 0)
(267.12 45.8593 0)
(267.789 47.0177 0)
(268.382 48.2225 0)
(269.086 49.4188 0)
(267.2 50.4151 0)
(266.376 49.1595 0)
(265.645 47.8849 0)
(264.609 48.7952 0)
(265.48 50.0942 0)
(266.445 51.3355 0)
(266.288 52.0249 0)
(265.229 50.8486 0)
(264.262 49.5876 0)
(263.215 48.2813 0)
(263.668 47.4674 0)
(264.846 46.6178 0)
(263.558 45.306 0)
(261.592 44.0173 0)
(259.462 42.792 0)
(258.01 43.5836 0)
(260.219 44.7941 0)
(262.268 46.0965 0)
(261.812 46.9384 0)
(259.774 45.6924 0)
(257.53 44.5347 0)
(255.425 43.405 0)
(255.954 42.4203 0)
(257.494 41.6089 0)
(260.152 40.9751 0)
(263.392 40.3051 0)
(255.631 44.3153 0)
(257.795 45.3581 0)
(260.018 46.4732 0)
(261.926 47.7249 0)
(263.235 49.0463 0)
(264.308 50.2949 0)
(265.301 51.4978 0)
(266.38 52.5995 0)
(266.332 53.2501 0)
(265.21 52.246 0)
(264.187 51.0936 0)
(263.816 52.0702 0)
(264.88 53.1673 0)
(266.038 54.0703 0)
(265.38 55.0325 0)
(264.19 54.2319 0)
(263.077 53.2028 0)
(261.898 52.1017 0)
(262.667 50.9221 0)
(263.07 49.8969 0)
(261.841 48.6052 0)
(260.129 47.3716 0)
(258.072 46.2623 0)
(258.144 47.2916 0)
(259.973 48.4257 0)
(261.489 49.6573 0)
(260.745 50.8539 0)
(259.38 49.6106 0)
(257.782 48.4103 0)
(256.881 49.5254 0)
(258.281 50.7892 0)
(259.533 52.0559 0)
(260.674 53.2815 0)
(261.876 54.3235 0)
(263.056 55.2657 0)
(264.309 55.9616 0)
(259.003 54.2471 0)
(257.807 53.0522 0)
(256.607 51.7638 0)
(255.368 50.4291 0)
(253.957 49.1827 0)
(255.255 48.3608 0)
(255.965 47.3703 0)
(256.154 46.3147 0)
(255.96 45.2771 0)
)
;

boundaryField
{
    bottom
    {
        type            symmetryPlane;
    }
    inlet1
    {
        type            fixedValue;
        value           nonuniform List<vector> 0();
    }
    outlet1
    {
        type            zeroGradient;
    }
    top
    {
        type            zeroGradient;
    }
    wall1
    {
        type            slip;
    }
    bottomEmptyFaces
    {
        type            empty;
    }
    topEmptyFaces
    {
        type            empty;
    }
    procBoundary6to2
    {
        type            processor;
        value           nonuniform List<vector> 
27
(
(295.159 44.9743 0)
(303.759 48.3006 0)
(265.877 57.5556 0)
(267.135 57.7835 0)
(274.725 52.4238 0)
(295.159 44.9743 0)
(283.964 50.3813 0)
(303.759 48.3006 0)
(312.097 55.6197 0)
(320.944 57.981 0)
(340.885 58.5463 0)
(331.145 60.6202 0)
(340.885 58.5463 0)
(271.193 56.3507 0)
(269.284 58.0302 0)
(267.135 57.7835 0)
(267.838 58.5068 0)
(264.463 57.2353 0)
(260.3 55.2317 0)
(261.627 56.0942 0)
(263.037 56.7143 0)
(260.3 55.2317 0)
(257.142 54.9995 0)
(255.762 53.8084 0)
(254.473 52.4838 0)
(253.271 51.0544 0)
(252.035 49.6601 0)
)
;
    }
    procBoundary6to5
    {
        type            processor;
        value           nonuniform List<vector> 
13
(
(265.125 37.9789 0)
(264.454 38.8961 0)
(253.662 42.2809 0)
(254.284 41.2795 0)
(255.91 40.4516 0)
(258.657 39.8272 0)
(261.947 39.1409 0)
(253.778 43.259 0)
(252.455 48.0105 0)
(253.601 47.2727 0)
(254.197 46.3616 0)
(254.304 45.3429 0)
(254.085 44.2805 0)
)
;
    }
    procBoundary6to7
    {
        type            processor;
        value           nonuniform List<vector> 
13
(
(320.405 82.5762 0)
(304.552 104.372 0)
(304.552 104.372 0)
(352.982 51.4575 0)
(318.74 85.6842 0)
(313.965 86.8609 0)
(310.062 88.8964 0)
(307.039 91.2812 0)
(304.336 94.0358 0)
(301.321 96.8354 0)
(299.854 100.849 0)
(299.854 100.849 0)
(352.121 56.6715 0)
)
;
    }
}


// ************************************************************************* //
