/*--------------------------------*- C++ -*----------------------------------*\
| =========                 |                                                 |
| \\      /  F ield         | OpenFOAM: The Open Source CFD Toolbox           |
|  \\    /   O peration     | Version:  2306                                  |
|   \\  /    A nd           | Website:  www.openfoam.com                      |
|    \\/     M anipulation  |                                                 |
\*---------------------------------------------------------------------------*/
FoamFile
{
    version     2.0;
    format      ascii;
    arch        "LSB;label=32;scalar=64";
    class       volScalarField;
    location    "0.02";
    object      p;
}
// * * * * * * * * * * * * * * * * * * * * * * * * * * * * * * * * * * * * * //

dimensions      [1 -1 -2 0 0 0 0];

internalField   nonuniform List<scalar> 
242
(
551659
551416
551918
552904
553305
552686
551360
549801
548492
547425
546618
546082
545458
544152
542299
540286
538433
536882
535694
552523
552309
552695
553277
553345
552791
551704
550446
549354
548450
547763
547304
546682
545308
543403
541349
539468
537905
536723
537490
538698
540334
542323
544499
546505
547959
549176
547761
545733
543488
541424
539726
538472
539327
540597
542328
543246
541480
540176
541020
542312
544053
546186
545411
544452
546790
548904
550354
551531
550022
547819
548593
550854
552428
553495
551839
549491
547072
544983
543277
541989
543147
544375
545986
547131
545703
544629
546335
547241
548426
549892
548877
547934
550194
552511
554295
554978
553117
550916
551635
553624
555510
555855
554085
552433
551031
549844
548847
548029
549526
550375
551278
552259
553343
554592
556073
557594
557289
556717
555916
554971
553931
552802
551846
550677
549562
548497
548693
549047
549606
550410
551527
552755
553672
554324
553155
551724
550586
549867
549518
549472
550365
550093
550164
550550
550758
551347
552254
551505
551124
551355
550923
550707
551775
553381
554954
555766
553694
551916
552258
554058
556521
558352
557189
555947
554948
554074
553828
553463
553470
554499
554749
555059
556444
556389
555893
557300
558026
557918
559230
559461
558790
559990
560718
560450
559267
557079
554528
552871
552056
551905
552434
553334
554565
553771
553231
554634
555233
555841
557007
556742
556304
556001
554448
553203
553668
554677
556826
556994
555485
554740
556061
556536
557560
558447
557894
557720
557795
557930
558034
557969
558719
559219
559333
559441
559609
559709
559911
560419
559596
559316
559309
559481
561092
561629
562011
561198
561022
561904
561761
560952
561178
561736
)
;

boundaryField
{
    bottom
    {
        type            symmetryPlane;
    }
    inlet1
    {
        type            fixedValue;
        value           nonuniform List<scalar> 0();
    }
    outlet1
    {
        type            zeroGradient;
    }
    top
    {
        type            zeroGradient;
    }
    wall1
    {
        type            zeroGradient;
    }
    bottomEmptyFaces
    {
        type            empty;
    }
    topEmptyFaces
    {
        type            empty;
    }
    procBoundary5to1
    {
        type            processor;
        value           nonuniform List<scalar> 
18
(
550653
551708
552640
553521
554365
555257
556373
557767
559155
560157
560705
561018
561325
561677
561800
561866
561964
561983
)
;
    }
    procBoundary5to4
    {
        type            processor;
        value           nonuniform List<scalar> 
14
(
552250
553040
553760
554490
555439
556112
557136
558289
561155
561155
561872
561970
561925
561902
)
;
    }
    procBoundary5to6
    {
        type            processor;
        value           nonuniform List<scalar> 
13
(
534946
536003
540235
539429
538609
537753
536793
541184
548543
547249
545630
543906
542368
)
;
    }
}


// ************************************************************************* //
