/*--------------------------------*- C++ -*----------------------------------*\
| =========                 |                                                 |
| \\      /  F ield         | OpenFOAM: The Open Source CFD Toolbox           |
|  \\    /   O peration     | Version:  2306                                  |
|   \\  /    A nd           | Website:  www.openfoam.com                      |
|    \\/     M anipulation  |                                                 |
\*---------------------------------------------------------------------------*/
FoamFile
{
    version     2.0;
    format      ascii;
    arch        "LSB;label=32;scalar=64";
    class       volScalarField;
    location    "0.02";
    object      T;
}
// * * * * * * * * * * * * * * * * * * * * * * * * * * * * * * * * * * * * * //

dimensions      [0 0 0 1 0 0 0];

internalField   nonuniform List<scalar> 
242
(
551.483
551.421
551.574
551.864
551.989
551.827
551.481
551.074
550.724
550.426
550.184
550.004
549.792
549.373
548.784
548.142
547.546
547.039
546.638
551.715
551.653
551.764
551.93
551.954
551.81
551.519
551.171
550.857
550.587
550.371
550.214
549.994
549.548
548.946
548.294
547.688
547.173
546.768
546.633
547.05
547.591
548.233
548.924
549.56
550.038
550.001
549.522
548.871
548.156
547.492
546.935
546.51
546.394
546.811
547.365
547.304
546.756
546.343
546.332
546.733
547.267
547.915
547.966
548.033
548.763
549.433
549.924
549.87
549.377
548.699
548.638
549.318
549.809
549.866
549.365
548.668
547.945
547.313
546.794
546.398
546.546
546.928
547.417
547.56
547.116
546.766
546.986
547.306
547.697
548.16
548.088
548
548.672
549.358
549.891
549.9
549.347
548.696
548.692
549.29
549.857
549.711
549.164
548.646
548.192
547.79
547.433
547.116
547.146
547.47
547.813
548.174
548.555
548.974
549.455
549.946
550.162
550.233
550.196
550.107
550.012
549.945
550.003
550.072
550.178
550.25
550.347
550.48
550.668
550.925
551.268
551.626
551.886
551.751
551.4
550.968
550.615
550.383
550.252
550.202
550.032
549.995
550.044
549.746
549.775
549.901
549.822
549.652
549.575
549.662
549.879
550.227
550.557
551.037
551.507
551.315
550.711
550.185
549.939
550.47
551.174
551.705
551.739
551.819
551.951
552.004
551.939
551.852
551.871
551.904
551.936
551.998
551.996
552.004
551.899
551.849
552.032
551.981
551.982
552.062
551.887
551.956
552.153
552.072
551.732
551.086
550.344
549.847
549.585
549.517
549.638
549.864
550.008
549.8
549.677
549.911
550.05
550.199
550.342
550.301
550.21
550.156
549.883
549.695
549.86
550.184
550.835
550.701
550.232
549.989
550.197
550.355
550.675
550.733
550.548
550.466
550.453
550.451
550.444
550.395
550.32
550.504
550.575
550.65
550.742
550.815
550.914
551.098
551.089
551.196
551.377
551.616
552.082
552.233
552.182
551.936
551.697
551.978
551.761
551.498
551.353
551.551
)
;

boundaryField
{
    bottom
    {
        type            symmetryPlane;
    }
    inlet1
    {
        type            fixedValue;
        value           nonuniform List<scalar> 0();
    }
    outlet1
    {
        type            zeroGradient;
    }
    top
    {
        type            zeroGradient;
    }
    wall1
    {
        type            zeroGradient;
    }
    bottomEmptyFaces
    {
        type            empty;
    }
    topEmptyFaces
    {
        type            empty;
    }
    procBoundary5to1
    {
        type            processor;
        value           nonuniform List<scalar> 
18
(
547.06
547.439
547.784
548.116
548.437
548.767
549.157
549.622
550.082
550.43
550.635
550.769
550.905
551.058
551.15
551.212
551.284
551.33
)
;
    }
    procBoundary5to4
    {
        type            processor;
        value           nonuniform List<scalar> 
14
(
551.647
551.869
551.975
551.937
551.818
551.547
551.442
551.479
552.094
552.094
552.15
552.02
551.832
551.627
)
;
    }
    procBoundary5to6
    {
        type            processor;
        value           nonuniform List<scalar> 
13
(
546.367
546.499
546.078
546.089
546.14
546.246
546.367
546.141
546.789
546.811
546.716
546.511
546.289
)
;
    }
}


// ************************************************************************* //
