/*--------------------------------*- C++ -*----------------------------------*\
| =========                 |                                                 |
| \\      /  F ield         | OpenFOAM: The Open Source CFD Toolbox           |
|  \\    /   O peration     | Version:  2306                                  |
|   \\  /    A nd           | Website:  www.openfoam.com                      |
|    \\/     M anipulation  |                                                 |
\*---------------------------------------------------------------------------*/
FoamFile
{
    version     2.0;
    format      ascii;
    arch        "LSB;label=32;scalar=64";
    class       volVectorField;
    location    "0.02";
    object      U;
}
// * * * * * * * * * * * * * * * * * * * * * * * * * * * * * * * * * * * * * //

dimensions      [0 1 -1 0 0 0 0];

internalField   nonuniform List<vector> 
242
(
(251.069 23.8383 0)
(251.639 23.9635 0)
(252.662 24.27 0)
(254.026 24.8383 0)
(255.015 25.5734 0)
(255.568 26.3394 0)
(255.754 27.1334 0)
(255.941 27.9655 0)
(256.428 28.7038 0)
(257.184 29.3897 0)
(258.201 30.0896 0)
(259.453 30.8386 0)
(260.702 31.6848 0)
(261.572 32.6067 0)
(262.103 33.5823 0)
(262.57 34.6512 0)
(263.178 35.7555 0)
(264.016 36.8643 0)
(265.125 37.9789 0)
(250.83 24.4762 0)
(251.363 24.5361 0)
(252.274 24.6447 0)
(253.38 24.9491 0)
(254.145 25.6341 0)
(254.618 26.5466 0)
(254.885 27.5772 0)
(255.219 28.5994 0)
(255.798 29.4901 0)
(256.616 30.3026 0)
(257.681 31.0824 0)
(258.959 31.8607 0)
(260.202 32.6793 0)
(261.021 33.5515 0)
(261.508 34.4947 0)
(261.94 35.55 0)
(262.523 36.6499 0)
(263.348 37.7642 0)
(264.454 38.8961 0)
(261.947 39.1409 0)
(260.853 38.0003 0)
(260.057 36.8982 0)
(259.521 35.8284 0)
(259.151 34.8232 0)
(258.729 33.9461 0)
(257.979 33.1231 0)
(254.758 33.7581 0)
(255.48 34.6339 0)
(255.866 35.5474 0)
(256.201 36.5685 0)
(256.726 37.634 0)
(257.533 38.7134 0)
(258.657 39.8272 0)
(255.91 40.4516 0)
(254.712 39.3125 0)
(253.844 38.194 0)
(252.065 39.0222 0)
(253.006 40.1478 0)
(254.284 41.2795 0)
(253.662 42.2809 0)
(252.26 41.1535 0)
(251.199 40.0058 0)
(250.449 38.8087 0)
(251.433 37.8721 0)
(253.276 37.0715 0)
(252.924 35.9783 0)
(252.532 35.0062 0)
(251.79 34.1002 0)
(249.834 34.6913 0)
(250.611 35.6678 0)
(251.033 36.7181 0)
(249.956 37.5613 0)
(249.497 36.3822 0)
(248.732 35.2913 0)
(248.445 35.9689 0)
(249.198 37.2019 0)
(249.647 38.5269 0)
(250.204 39.852 0)
(251.078 41.0558 0)
(252.266 42.1785 0)
(253.778 43.259 0)
(254.085 44.2805 0)
(252.516 43.2425 0)
(251.253 42.1256 0)
(251.372 43.2249 0)
(252.697 44.3358 0)
(254.304 45.3429 0)
(254.197 46.3616 0)
(252.598 45.347 0)
(251.235 44.2381 0)
(250.09 43.0274 0)
(250.3 42.01 0)
(250.266 40.9172 0)
(249.563 39.552 0)
(249.022 38.0914 0)
(248.315 36.6827 0)
(248.281 37.5001 0)
(248.914 39.0805 0)
(249.5 40.6276 0)
(249.184 41.6539 0)
(248.505 40.0825 0)
(247.906 38.3958 0)
(247.094 39.2599 0)
(247.728 41.0052 0)
(248.523 42.5519 0)
(249.512 43.8939 0)
(250.693 45.0957 0)
(252.049 46.2173 0)
(253.601 47.2727 0)
(252.455 48.0105 0)
(250.988 46.8897 0)
(249.659 45.7553 0)
(248.469 44.5625 0)
(247.425 43.2417 0)
(246.53 41.7442 0)
(245.822 40.0161 0)
(245.225 38.1625 0)
(246.41 37.4896 0)
(247.062 36.7458 0)
(247.209 35.9987 0)
(247.044 35.3855 0)
(247.032 34.8292 0)
(247.358 34.2462 0)
(248.452 33.7452 0)
(250.453 33.2091 0)
(253.47 32.8723 0)
(256.727 32.308 0)
(255.379 31.4909 0)
(254.21 30.5879 0)
(253.307 29.5928 0)
(252.69 28.5208 0)
(252.374 27.3609 0)
(252.222 26.2864 0)
(251.979 25.5508 0)
(248.638 25.9114 0)
(248.645 26.7652 0)
(248.635 27.8168 0)
(248.955 28.8956 0)
(249.654 29.9496 0)
(250.697 30.9964 0)
(252.025 31.9747 0)
(248.895 32.3183 0)
(247.402 31.3441 0)
(246.183 30.2645 0)
(243.765 30.7487 0)
(245.11 31.8201 0)
(246.785 32.8058 0)
(245.645 33.2369 0)
(243.845 32.2357 0)
(242.395 31.1872 0)
(241.34 30.1032 0)
(242.791 29.628 0)
(245.347 29.1438 0)
(244.939 27.981 0)
(245.015 26.7876 0)
(245.237 25.8277 0)
(242.749 26.1587 0)
(242.377 27.2294 0)
(242.3 28.4747 0)
(240.775 29.0223 0)
(240.793 27.8243 0)
(241.263 26.6774 0)
(241.535 25.7983 0)
(242.864 25.4601 0)
(245.237 25.2093 0)
(248.421 25.2825 0)
(251.476 25.087 0)
(250.747 24.8545 0)
(249.999 24.8249 0)
(249.56 24.8099 0)
(247.137 24.691 0)
(247.509 24.7312 0)
(248.021 24.8845 0)
(245.011 24.8683 0)
(244.611 24.7149 0)
(244.09 24.672 0)
(241.686 24.6012 0)
(242.32 24.766 0)
(242.687 25.0528 0)
(241.476 25.2247 0)
(241.173 24.7965 0)
(240.541 24.4139 0)
(240.11 24.1468 0)
(240.778 24.7329 0)
(241.119 25.3835 0)
(241.092 26.2289 0)
(240.588 27.3929 0)
(240.045 28.7102 0)
(240.097 29.8405 0)
(240.703 30.8103 0)
(241.786 31.7956 0)
(243.306 32.7841 0)
(245.226 33.7863 0)
(245.367 34.2515 0)
(243.481 33.2599 0)
(241.886 32.3555 0)
(242.44 32.7153 0)
(244.014 33.6209 0)
(245.724 34.6971 0)
(245.824 35.2486 0)
(244.424 33.9807 0)
(243.019 32.9661 0)
(241.856 32.1383 0)
(241.231 31.8292 0)
(240.707 31.46 0)
(239.934 30.56 0)
(239.615 29.5204 0)
(240.037 28.125 0)
(240.062 28.914 0)
(239.953 30.0264 0)
(240.393 30.9288 0)
(240.996 31.3251 0)
(240.486 30.4588 0)
(240.409 29.4094 0)
(240.679 29.7228 0)
(240.895 30.6083 0)
(241.434 31.3731 0)
(242.217 32.1893 0)
(243.208 33.1991 0)
(244.325 34.43 0)
(245.456 35.8638 0)
(244.553 36.4036 0)
(243.711 34.8725 0)
(242.832 33.5125 0)
(242.062 32.3167 0)
(241.452 31.3135 0)
(241.009 30.497 0)
(240.725 29.7315 0)
(240.703 28.7783 0)
(240.869 28.5562 0)
(240.853 28.1018 0)
(240.686 27.5116 0)
(240.778 26.7518 0)
(241.076 25.6405 0)
(240.858 24.7194 0)
(241.147 24.9388 0)
(241.157 26.1514 0)
(241.328 26.6949 0)
(241.42 25.2998 0)
(241.371 25.73 0)
(241.237 27.1934 0)
(240.884 27.5317 0)
(240.993 26.0891 0)
)
;

boundaryField
{
    bottom
    {
        type            symmetryPlane;
    }
    inlet1
    {
        type            fixedValue;
        value           nonuniform List<vector> 0();
    }
    outlet1
    {
        type            zeroGradient;
    }
    top
    {
        type            zeroGradient;
    }
    wall1
    {
        type            slip;
    }
    bottomEmptyFaces
    {
        type            empty;
    }
    topEmptyFaces
    {
        type            empty;
    }
    procBoundary5to1
    {
        type            processor;
        value           nonuniform List<vector> 
18
(
(250.719 48.3906 0)
(249.365 47.24 0)
(248.083 46.0917 0)
(246.9 44.902 0)
(245.825 43.6195 0)
(244.875 42.2051 0)
(244.109 40.6043 0)
(243.533 38.8154 0)
(243.069 36.9571 0)
(242.555 35.2448 0)
(241.977 33.7789 0)
(241.426 32.4742 0)
(241 31.3098 0)
(240.708 30.3355 0)
(240.5 29.5232 0)
(240.377 28.6901 0)
(240.309 27.5911 0)
(240.239 26.243 0)
)
;
    }
    procBoundary5to4
    {
        type            processor;
        value           nonuniform List<vector> 
14
(
(250.871 23.8041 0)
(250.641 24.4244 0)
(249.422 24.7352 0)
(247.031 24.6234 0)
(243.76 24.522 0)
(240.912 24.3795 0)
(239.435 24.0956 0)
(238.966 23.6608 0)
(240.32 23.9225 0)
(240.32 23.9225 0)
(240.829 23.8359 0)
(241.203 23.9427 0)
(241.241 24.2599 0)
(240.94 24.5938 0)
)
;
    }
    procBoundary5to6
    {
        type            processor;
        value           nonuniform List<vector> 
13
(
(266.556 39.0908 0)
(265.891 40.0324 0)
(255.425 43.405 0)
(255.954 42.4203 0)
(257.494 41.6089 0)
(260.152 40.9751 0)
(263.392 40.3051 0)
(255.631 44.3153 0)
(253.957 49.1827 0)
(255.255 48.3608 0)
(255.965 47.3703 0)
(256.154 46.3147 0)
(255.96 45.2771 0)
)
;
    }
}


// ************************************************************************* //
