/*--------------------------------*- C++ -*----------------------------------*\
| =========                 |                                                 |
| \\      /  F ield         | OpenFOAM: The Open Source CFD Toolbox           |
|  \\    /   O peration     | Version:  2306                                  |
|   \\  /    A nd           | Website:  www.openfoam.com                      |
|    \\/     M anipulation  |                                                 |
\*---------------------------------------------------------------------------*/
FoamFile
{
    version     2.0;
    format      ascii;
    arch        "LSB;label=32;scalar=64";
    class       volScalarField;
    location    "0.01";
    object      p;
}
// * * * * * * * * * * * * * * * * * * * * * * * * * * * * * * * * * * * * * //

dimensions      [1 -1 -2 0 0 0 0];

internalField   nonuniform List<scalar> 
290
(
561277
563136
565217
568823
573229
579763
586074
592686
600733
587714
585625
582513
579994
578138
576752
575906
575862
576087
576668
577738
579717
582954
551406
550257
549164
550838
551817
552765
553827
552721
557483
555959
554276
555113
556678
558386
559939
558645
560700
560205
559516
561161
562091
562701
562858
560948
560839
560735
560879
562613
562094
561658
561611
561296
562251
561834
561971
562475
562701
562411
562587
563199
563964
564472
564622
564391
563657
562442
560835
559097
557560
556352
555440
554701
553955
552977
554715
554303
555090
556258
556933
559128
558369
556758
557658
559910
561066
561482
559489
557421
557951
558699
559792
560702
560116
559778
561699
561843
562038
563725
563806
563772
563483
562696
560903
558032
558150
561499
564003
564985
561966
558483
559278
562536
565776
568878
567263
565427
566012
566158
566101
568874
568770
568383
570734
571588
572079
575362
574497
572923
570329
566543
563315
560232
561292
564077
567319
567907
564259
561611
560063
572770
571719
574738
577353
578453
582397
581048
576786
578020
574581
584159
585195
590118
586239
583886
581229
578392
575075
571741
568568
565896
563790
562458
561711
561315
563128
564729
565762
566699
565184
563300
563438
565123
567031
568443
567525
566199
566190
565850
565125
567042
567550
567728
569110
569196
568880
570517
570544
570037
568790
566993
565261
564212
565829
566210
567194
568718
568297
568282
571108
570711
570584
570871
569622
568928
570573
571463
571702
573008
572232
570919
571722
572831
573676
573962
573043
571505
570148
568176
566160
564222
563530
563303
564465
565172
567163
566166
568282
569378
570949
570190
571971
572608
573793
573449
574797
574898
574796
574272
573422
572698
572415
572744
573365
574234
577247
575932
574849
576515
577958
579619
581436
579333
577587
576394
575438
574020
573803
574095
574843
575443
574894
574944
575764
575500
575804
576143
575677
575919
576669
578049
579936
582532
576378
577043
576916
576575
576199
575579
575998
576138
577345
576888
577581
578293
579400
578109
578305
580022
)
;

boundaryField
{
    bottom
    {
        type            symmetryPlane;
    }
    inlet1
    {
        type            fixedValue;
        value           nonuniform List<scalar> 0();
    }
    outlet1
    {
        type            zeroGradient;
    }
    top
    {
        type            zeroGradient;
    }
    wall1
    {
        type            zeroGradient;
    }
    bottomEmptyFaces
    {
        type            empty;
    }
    topEmptyFaces
    {
        type            empty;
    }
    procBoundary1to0
    {
        type            processor;
        value           nonuniform List<scalar> 
17
(
587682
562570
563017
563301
563611
564304
565577
567316
569366
571194
572972
574642
576354
578008
579507
581241
581929
)
;
    }
    procBoundary1to2
    {
        type            processor;
        value           nonuniform List<scalar> 
17
(
559472
559472
549680
548036
551559
551382
551536
556726
555490
554863
554751
554751
553223
553223
558061
559310
559310
)
;
    }
    procBoundary1to5
    {
        type            processor;
        value           nonuniform List<scalar> 
18
(
548077
549315
550658
552154
553782
555300
556422
557154
557758
558346
558829
559112
559390
559942
560667
561273
561638
561776
)
;
    }
}


// ************************************************************************* //
