/*--------------------------------*- C++ -*----------------------------------*\
| =========                 |                                                 |
| \\      /  F ield         | OpenFOAM: The Open Source CFD Toolbox           |
|  \\    /   O peration     | Version:  2306                                  |
|   \\  /    A nd           | Website:  www.openfoam.com                      |
|    \\/     M anipulation  |                                                 |
\*---------------------------------------------------------------------------*/
FoamFile
{
    version     2.0;
    format      ascii;
    arch        "LSB;label=32;scalar=64";
    class       volScalarField;
    location    "0.01";
    object      T;
}
// * * * * * * * * * * * * * * * * * * * * * * * * * * * * * * * * * * * * * //

dimensions      [0 0 0 1 0 0 0];

internalField   nonuniform List<scalar> 
290
(
547.396
547.909
548.489
549.487
550.676
552.434
554.175
555.979
558.145
554.604
553.983
553.133
552.443
551.93
551.544
551.299
551.278
551.305
551.453
551.749
552.273
553.143
547.439
547.032
546.637
546.684
547.041
547.392
547.786
547.891
549.481
548.973
548.415
548.239
548.758
549.314
549.824
549.873
550.638
550.433
550.176
550.23
550.552
550.797
550.898
550.764
550.878
550.801
550.786
550.88
550.793
550.739
550.772
551.046
551.402
551.239
550.916
551.104
550.748
550.625
550.629
550.732
550.884
550.97
550.963
550.837
550.565
550.163
549.641
549.08
548.581
548.158
547.808
547.511
547.226
546.889
546.616
546.668
547.171
547.544
547.785
548.136
547.882
547.391
547.464
548.124
548.484
548.641
548.283
547.984
548.203
548.486
548.861
548.756
548.541
548.406
548.733
548.793
548.871
549.189
549.194
549.17
549.058
548.801
548.27
547.444
547.377
548.334
549.057
549.218
548.351
547.345
547.397
548.352
549.286
550.179
549.882
549.489
549.687
549.746
549.754
550.433
550.383
550.236
550.743
551.034
551.198
551.921
551.646
551.151
550.386
549.306
548.38
547.485
547.614
548.412
549.334
549.32
548.297
547.548
547.12
550.694
550.57
551.428
552.189
552.537
553.369
552.999
551.832
552.054
551.084
553.703
553.958
555.254
554.166
553.614
553.086
552.556
551.883
551.142
550.379
549.718
549.222
549.03
549.101
549.35
549.929
550.441
550.79
550.647
550.173
549.594
549.349
549.857
550.417
550.844
550.932
550.976
551.016
550.97
550.816
550.917
551.018
551.031
551.065
551.114
551.057
551.242
551.235
551.075
550.713
550.204
549.694
549.369
549.709
549.829
550.125
550.466
550.34
550.324
551.006
550.937
550.929
551.033
550.735
550.618
551.086
551.333
551.392
551.662
551.467
551.106
551.285
551.601
551.836
551.913
551.656
551.327
551.154
550.892
550.711
550.619
550.49
550.47
550.34
550.481
550.632
550.381
550.634
550.946
551.164
550.944
551.338
551.523
551.864
551.764
552.183
552.197
552.145
551.965
551.702
551.477
551.368
551.417
551.525
551.704
552.305
552.008
551.776
551.944
552.296
552.704
552.982
552.437
551.995
551.709
551.707
551.615
551.591
551.709
551.98
551.902
551.656
551.629
551.575
551.528
551.697
551.508
551.343
551.405
551.606
551.969
552.468
553.162
551.428
551.631
551.791
552.001
552.192
552.243
552.409
552.495
552.597
552.43
552.326
552.539
552.545
552.16
551.982
552.467
)
;

boundaryField
{
    bottom
    {
        type            symmetryPlane;
    }
    inlet1
    {
        type            fixedValue;
        value           nonuniform List<scalar> 0();
    }
    outlet1
    {
        type            zeroGradient;
    }
    top
    {
        type            zeroGradient;
    }
    wall1
    {
        type            zeroGradient;
    }
    bottomEmptyFaces
    {
        type            empty;
    }
    topEmptyFaces
    {
        type            empty;
    }
    procBoundary1to0
    {
        type            processor;
        value           nonuniform List<scalar> 
17
(
554.417
551.531
551.308
550.96
550.59
550.333
550.254
550.366
550.7
551.115
551.627
552.148
552.578
552.822
552.896
553.064
552.989
)
;
    }
    procBoundary1to2
    {
        type            processor;
        value           nonuniform List<scalar> 
17
(
546.919
546.919
546.274
546.229
546.427
545.813
545.686
546.63
546.462
546.424
546.498
546.498
546.596
546.596
546.826
547.017
547.017
)
;
    }
    procBoundary1to5
    {
        type            processor;
        value           nonuniform List<scalar> 
18
(
546.734
547.168
547.632
548.136
548.675
549.182
549.564
549.822
550.044
550.258
550.445
550.573
550.692
550.887
551.122
551.326
551.467
551.539
)
;
    }
}


// ************************************************************************* //
