/*--------------------------------*- C++ -*----------------------------------*\
| =========                 |                                                 |
| \\      /  F ield         | OpenFOAM: The Open Source CFD Toolbox           |
|  \\    /   O peration     | Version:  2306                                  |
|   \\  /    A nd           | Website:  www.openfoam.com                      |
|    \\/     M anipulation  |                                                 |
\*---------------------------------------------------------------------------*/
FoamFile
{
    version     2.0;
    format      ascii;
    arch        "LSB;label=32;scalar=64";
    class       volVectorField;
    location    "0.01";
    object      U;
}
// * * * * * * * * * * * * * * * * * * * * * * * * * * * * * * * * * * * * * //

dimensions      [0 1 -1 0 0 0 0];

internalField   nonuniform List<vector> 
290
(
(246.812 68.9276 0)
(244.266 67.232 0)
(241.405 66.7519 0)
(238.254 65.725 0)
(235.579 63.6215 0)
(232.281 63.5675 0)
(226.844 56.5136 0)
(218.892 48.2255 0)
(212.109 38.1964 0)
(219.791 30.4438 0)
(227.197 31.9036 0)
(231.088 31.8223 0)
(233.523 31.7953 0)
(235.048 31.759 0)
(235.999 31.7379 0)
(236.526 31.7214 0)
(236.542 31.5964 0)
(236.477 31.4237 0)
(236.369 31.3665 0)
(235.84 30.8607 0)
(234.924 30.2943 0)
(233.314 29.145 0)
(247.85 46.1451 0)
(249.128 47.3983 0)
(250.494 48.4801 0)
(248.547 48.9517 0)
(247.105 47.8736 0)
(245.72 46.7132 0)
(244.472 45.4238 0)
(246.728 44.7187 0)
(244.482 39.6165 0)
(245.108 41.344 0)
(245.82 43.102 0)
(243.439 43.9463 0)
(242.676 42.2427 0)
(242.188 40.3894 0)
(241.844 38.6018 0)
(243.839 38.1012 0)
(242.065 34.5603 0)
(242.6 35.6481 0)
(243.195 36.8052 0)
(241.536 37.0416 0)
(241.252 35.6992 0)
(240.94 34.5026 0)
(240.511 33.3567 0)
(241.544 33.5434 0)
(240.178 29.8766 0)
(240.505 31.3345 0)
(241.013 32.511 0)
(240.059 32.2325 0)
(239.52 31.1371 0)
(239.04 30.0072 0)
(238.795 28.6403 0)
(240.019 28.2453 0)
(239.998 25.1441 0)
(239.981 26.6312 0)
(238.79 27.0469 0)
(238.931 25.4331 0)
(237.341 25.733 0)
(237.208 27.2312 0)
(237.323 28.5422 0)
(237.671 29.6524 0)
(238.141 30.6934 0)
(238.51 31.7871 0)
(238.766 32.9645 0)
(238.953 34.2471 0)
(239.002 35.6761 0)
(238.995 37.3206 0)
(239.037 39.2083 0)
(239.283 41.205 0)
(239.879 43.0831 0)
(240.851 44.7057 0)
(242.092 46.1459 0)
(243.539 47.4417 0)
(245.097 48.6138 0)
(246.657 49.718 0)
(244.685 54.7166 0)
(245.329 53.2374 0)
(245.047 50.6251 0)
(243.358 49.3923 0)
(241.601 48.1379 0)
(240.247 48.835 0)
(242.198 50.2132 0)
(243.925 51.6362 0)
(243.22 52.8394 0)
(241.511 51.0945 0)
(239.489 49.4865 0)
(237.301 47.9625 0)
(238.299 47.4145 0)
(239.917 46.8078 0)
(238.429 45.3563 0)
(237.194 43.7572 0)
(236.311 41.9494 0)
(233.86 42.4849 0)
(235.059 44.2425 0)
(236.549 45.8815 0)
(235.321 46.3251 0)
(233.652 44.5912 0)
(232.217 42.8146 0)
(231.296 43.0599 0)
(232.82 44.9818 0)
(234.696 46.8323 0)
(236.937 48.5822 0)
(239.293 50.3153 0)
(241.247 52.2837 0)
(242.938 54.3576 0)
(242.835 56.281 0)
(241.052 53.9465 0)
(239.285 51.5658 0)
(239.258 53.3769 0)
(240.975 56.1266 0)
(242.981 58.5883 0)
(243.183 60.9985 0)
(240.818 58.6311 0)
(239.114 55.6824 0)
(236.716 52.7842 0)
(236.947 50.8226 0)
(236.916 49.4638 0)
(234.604 47.3945 0)
(232.527 45.398 0)
(230.85 43.3175 0)
(230.852 43.6754 0)
(232.564 45.9637 0)
(234.743 48.252 0)
(234.833 49.5717 0)
(232.635 46.8083 0)
(230.973 44.1616 0)
(230.841 44.6058 0)
(232.167 47.9635 0)
(234.307 51.3595 0)
(235.826 55.1891 0)
(238.332 58.178 0)
(240.359 61.0232 0)
(243.005 63.264 0)
(243.438 64.8681 0)
(239.995 63.1678 0)
(237.161 60.4946 0)
(236.556 63.1237 0)
(240.244 65.5053 0)
(243.563 66.8029 0)
(246.369 68.5502 0)
(231.87 60.1849 0)
(233.966 57.6081 0)
(232.666 53.3458 0)
(230.617 49.3619 0)
(230.112 44.9826 0)
(228.324 44.6792 0)
(226.842 49.788 0)
(229.717 54.4054 0)
(227.416 56.1283 0)
(230.662 62.3294 0)
(221.914 50.2731 0)
(224.279 43.2054 0)
(218.448 39.047 0)
(226.197 35.2197 0)
(227.552 38.6436 0)
(229.021 40.4403 0)
(230.053 41.378 0)
(230.349 41.6754 0)
(229.999 41.6351 0)
(229.513 41.4488 0)
(229.515 41.2772 0)
(230.127 41.1144 0)
(231.15 40.911 0)
(233.063 40.5304 0)
(235.863 39.8869 0)
(235.865 37.715 0)
(236.069 35.7011 0)
(236.221 33.9837 0)
(233.384 33.8307 0)
(233.075 35.924 0)
(232.839 38.2682 0)
(230.604 38.8386 0)
(230.647 36.5145 0)
(231.009 34.172 0)
(231.283 32.1175 0)
(233.54 32.1349 0)
(236.238 32.535 0)
(236.154 31.2532 0)
(236.001 30.0959 0)
(235.691 29.0601 0)
(233.219 28.3982 0)
(233.413 29.4996 0)
(233.505 30.7308 0)
(231.327 30.4458 0)
(231.195 29.0717 0)
(230.961 27.8669 0)
(229.528 27.6397 0)
(229.799 29.033 0)
(229.896 30.6499 0)
(229.667 32.5795 0)
(229.28 34.7957 0)
(229.071 37.0352 0)
(229.353 39.1445 0)
(228.682 39.3076 0)
(228.25 37.4093 0)
(228.313 35.3449 0)
(228.119 35.8471 0)
(228.145 37.6137 0)
(228.58 39.4556 0)
(229.209 39.5422 0)
(228.839 37.6991 0)
(228.893 35.955 0)
(229.006 34.2608 0)
(228.395 33.9759 0)
(228.726 33.2216 0)
(229.119 31.2474 0)
(229.13 29.4896 0)
(228.832 28.0192 0)
(228.986 28.6074 0)
(229.081 30.1973 0)
(228.816 31.9986 0)
(229.398 32.562 0)
(229.705 30.8545 0)
(229.774 29.247 0)
(229.326 27.6729 0)
(228.45 27.1086 0)
(228.399 26.6475 0)
(229.096 26.3935 0)
(230.571 26.7907 0)
(232.894 27.4056 0)
(235.332 28.0783 0)
(235.116 27.0237 0)
(235.182 25.7574 0)
(232.471 25.3741 0)
(232.568 26.4407 0)
(230.102 25.7968 0)
(229.762 24.7565 0)
(227.937 24.196 0)
(228.534 25.2456 0)
(227.834 25.2857 0)
(227.17 23.9788 0)
(226.917 24.1394 0)
(227.711 25.6306 0)
(228.613 26.1029 0)
(227.729 24.5073 0)
(229.579 25.0135 0)
(230.373 26.569 0)
(230.986 28.0151 0)
(231.257 29.4848 0)
(231.059 31.0322 0)
(230.769 32.6571 0)
(230.455 34.2053 0)
(230.269 35.7584 0)
(229.937 37.4375 0)
(230.094 39.3368 0)
(230.668 38.8062 0)
(231.005 36.8043 0)
(231.709 35.2978 0)
(232.91 34.4032 0)
(231.855 35.6679 0)
(230.787 37.5886 0)
(230.299 35.7323 0)
(232.549 34.3491 0)
(233.84 33.4325 0)
(234.705 32.8082 0)
(233.483 33.3377 0)
(232.039 33.9896 0)
(232.391 32.7332 0)
(232.556 31.3917 0)
(232.725 29.9383 0)
(233.755 29.9903 0)
(233.908 31.2329 0)
(233.798 32.3277 0)
(235.018 32.1036 0)
(235.073 31.3792 0)
(234.477 30.5945 0)
(235.534 30.8021 0)
(236.064 31.5698 0)
(236.013 32.0014 0)
(235.517 32.2621 0)
(234.529 32.5016 0)
(233.011 32.9292 0)
(230.407 33.5121 0)
(235.92 31.3576 0)
(235.112 30.7781 0)
(234.605 29.6745 0)
(233.933 29.152 0)
(233.511 28.5688 0)
(232.579 28.395 0)
(232.135 26.8735 0)
(231.513 25.3375 0)
(232.433 25.466 0)
(233.005 27.0658 0)
(233.061 27.6086 0)
(232.348 25.9187 0)
(231.579 26.6732 0)
(233.292 28.41 0)
(233.745 30.079 0)
(231.625 28.7632 0)
)
;

boundaryField
{
    bottom
    {
        type            symmetryPlane;
    }
    inlet1
    {
        type            fixedValue;
        value           nonuniform List<vector> 0();
    }
    outlet1
    {
        type            zeroGradient;
    }
    top
    {
        type            zeroGradient;
    }
    wall1
    {
        type            slip;
    }
    bottomEmptyFaces
    {
        type            empty;
    }
    topEmptyFaces
    {
        type            empty;
    }
    procBoundary1to0
    {
        type            processor;
        value           nonuniform List<vector> 
17
(
(229.984 26.7325 0)
(240.077 23.8243 0)
(239.202 23.9277 0)
(237.744 24.1698 0)
(235.563 24.2763 0)
(232.746 24.0863 0)
(229.77 23.5797 0)
(227.568 23.1255 0)
(226.603 22.7161 0)
(226.253 22.6286 0)
(226.921 22.8793 0)
(228.757 23.2951 0)
(230.696 23.6813 0)
(231.459 23.8599 0)
(231.016 24.0906 0)
(229.524 24.2546 0)
(228.607 26.3843 0)
)
;
    }
    procBoundary1to2
    {
        type            processor;
        value           nonuniform List<vector> 
17
(
(248.763 68.7058 0)
(248.763 68.7058 0)
(249.97 50.0105 0)
(251.885 49.4703 0)
(248.103 50.8725 0)
(246.689 54.9545 0)
(246.206 56.6125 0)
(245.61 63.2818 0)
(245.105 60.8595 0)
(244.655 58.5079 0)
(244.476 56.4728 0)
(244.476 56.4728 0)
(246.496 51.9639 0)
(246.496 51.9639 0)
(245.972 65.5062 0)
(246.684 67.2194 0)
(246.684 67.2194 0)
)
;
    }
    procBoundary1to5
    {
        type            processor;
        value           nonuniform List<vector> 
18
(
(252.167 48.1219 0)
(250.861 46.9191 0)
(249.667 45.5406 0)
(248.62 43.9718 0)
(247.738 42.2438 0)
(246.912 40.5168 0)
(246.002 38.9744 0)
(245.021 37.6442 0)
(244.112 36.4687 0)
(243.356 35.4122 0)
(242.716 34.4573 0)
(242.14 33.5393 0)
(241.661 32.4818 0)
(241.354 31.0971 0)
(241.177 29.4414 0)
(240.995 27.7626 0)
(240.769 26.2241 0)
(240.559 24.8499 0)
)
;
    }
}


// ************************************************************************* //
