/*--------------------------------*- C++ -*----------------------------------*\
| =========                 |                                                 |
| \\      /  F ield         | OpenFOAM: The Open Source CFD Toolbox           |
|  \\    /   O peration     | Version:  2306                                  |
|   \\  /    A nd           | Website:  www.openfoam.com                      |
|    \\/     M anipulation  |                                                 |
\*---------------------------------------------------------------------------*/
FoamFile
{
    version     2.0;
    format      ascii;
    arch        "LSB;label=32;scalar=64";
    class       volScalarField;
    location    "0.1";
    object      p;
}
// * * * * * * * * * * * * * * * * * * * * * * * * * * * * * * * * * * * * * //

dimensions      [1 -1 -2 0 0 0 0];

internalField   nonuniform List<scalar> 
306
(
998173
955155
5.30181e+06
5.43505e+06
5.07412e+06
5.34083e+06
5.06052e+06
5.30751e+06
5.19321e+06
5.27339e+06
5.20344e+06
5.20713e+06
5.19342e+06
5.18897e+06
5.18322e+06
5.17665e+06
5.16963e+06
5.16198e+06
5.1545e+06
588785
594261
604865
588719
586193
581993
578630
576353
574454
573079
572014
571402
571231
571154
571100
566960
573668
573647
572800
569338
566175
560621
559183
558986
559677
560273
560525
560323
558956
558159
557688
557449
562186
562935
563975
563598
563388
564046
564172
564321
564188
563629
562629
562300
557720
559089
560787
561370
560100
559046
558825
557287
558630
558780
558096
559497
559900
559530
558654
557814
556499
557320
557876
559304
560254
560762
560522
559895
559870
560688
561805
562878
563805
564460
564708
564613
564168
565760
567421
568839
568990
567519
565899
565732
565206
564387
565559
566535
567228
568730
568061
567066
568778
569713
570243
570293
569872
570442
570709
571862
572649
571573
571154
571424
571173
570461
571954
572333
572162
573247
573381
573085
574565
574713
574437
573726
572959
574530
576514
578693
579282
576913
575237
576041
576339
576116
578027
578549
578030
580826
581361
580212
582312
584227
584907
581891
581333
582498
583483
589799
587138
584611
580983
579641
578890
577061
575500
573966
572342
571004
569331
567625
565928
564470
563428
562382
561306
560557
561396
562211
563337
564728
563517
562525
562119
561326
560657
561312
561533
560938
561483
561991
561790
562230
562334
561952
562144
562563
562769
563181
563994
565137
566385
568039
566736
565458
567180
568517
569798
571283
570026
568624
567200
565880
564318
563413
562809
562237
562530
563604
564650
565830
564672
563564
562572
561509
561530
561353
561000
560405
559871
558235
558541
558965
559228
559218
559073
560697
562084
563313
564321
565698
567075
568619
570144
571657
572945
574352
572985
571403
572495
574102
575644
577185
575324
573633
572058
570912
569859
568338
566968
565611
566752
568027
569408
570770
569803
569102
569723
570574
571453
572624
574067
575695
577699
578444
576218
574388
572898
571624
570635
569866
569630
569183
568870
565980
564578
563603
564982
568327
569222
570415
974691
975141
975880
976648
977670
980126
983022
983447
981055
980480
975424
984223
988236
1.01316e+06
1.0081e+06
)
;

boundaryField
{
    bottom
    {
        type            symmetryPlane;
    }
    inlet1
    {
        type            fixedValue;
        value           uniform 101325;
    }
    outlet1
    {
        type            zeroGradient;
    }
    top
    {
        type            zeroGradient;
    }
    wall1
    {
        type            zeroGradient;
    }
    bottomEmptyFaces
    {
        type            empty;
    }
    topEmptyFaces
    {
        type            empty;
    }
    procBoundary0to1
    {
        type            processor;
        value           nonuniform List<scalar> 
17
(
584222
560587
561778
563593
565412
567012
568302
569101
569611
570071
571293
572482
574008
576065
578147
580191
580971
)
;
    }
    procBoundary0to4
    {
        type            processor;
        value           nonuniform List<scalar> 
18
(
5.14508e+06
556958
561749
563232
563823
563766
563028
561374
559368
557489
556007
555515
556490
557530
557665
556950
555503
974256
)
;
    }
}


// ************************************************************************* //
