/*--------------------------------*- C++ -*----------------------------------*\
| =========                 |                                                 |
| \\      /  F ield         | OpenFOAM: The Open Source CFD Toolbox           |
|  \\    /   O peration     | Version:  2306                                  |
|   \\  /    A nd           | Website:  www.openfoam.com                      |
|    \\/     M anipulation  |                                                 |
\*---------------------------------------------------------------------------*/
FoamFile
{
    version     2.0;
    format      ascii;
    arch        "LSB;label=32;scalar=64";
    class       volScalarField;
    location    "0.1";
    object      rho;
}
// * * * * * * * * * * * * * * * * * * * * * * * * * * * * * * * * * * * * * //

dimensions      [1 -3 0 0 0 0 0];

internalField   nonuniform List<scalar> 
306
(
5.67499
5.49646
22.1257
22.5549
20.8352
21.7846
20.753
21.8839
21.5025
21.8236
21.5592
21.5316
21.4259
21.3779
21.3401
21.3056
21.2706
21.2327
21.1933
3.69823
3.72273
3.76968
3.69844
3.6879
3.66917
3.6542
3.64436
3.63631
3.63071
3.62663
3.62474
3.62507
3.62648
3.6287
3.61076
3.6402
3.62352
3.60418
3.58681
3.58068
3.56281
3.55776
3.55731
3.5584
3.55612
3.55234
3.54882
3.5414
3.53653
3.53245
3.52845
3.55093
3.55672
3.56107
3.55701
3.55549
3.55864
3.55936
3.56241
3.56163
3.55885
3.55408
3.55047
3.52959
3.53583
3.54355
3.54821
3.54238
3.53761
3.53664
3.52757
3.53358
3.53433
3.53123
3.53974
3.5416
3.53988
3.5358
3.5297
3.52369
3.52974
3.53427
3.54074
3.54515
3.5475
3.54643
3.54359
3.54351
3.54736
3.55264
3.55775
3.56223
3.56551
3.56692
3.56671
3.56509
3.5753
3.58584
3.5951
3.59563
3.58604
3.57559
3.57452
3.57179
3.56774
3.57623
3.58098
3.58444
3.59428
3.59101
3.58624
3.59678
3.60112
3.60361
3.6039
3.60209
3.60609
3.608
3.6131
3.6167
3.61192
3.60928
3.61054
3.60948
3.60633
3.61381
3.61544
3.61463
3.6194
3.61998
3.61865
3.6246
3.62536
3.62416
3.62102
3.6176
3.62505
3.63537
3.64709
3.64969
3.63694
3.62804
3.63142
3.6326
3.63131
3.64111
3.64382
3.64169
3.65672
3.65917
3.6537
3.6666
3.67526
3.67759
3.66369
3.66108
3.66879
3.67329
3.70168
3.69059
3.6797
3.66332
3.6542
3.64744
3.63659
3.62836
3.62181
3.61536
3.60965
3.60127
3.59141
3.5808
3.57098
3.56308
3.55804
3.55287
3.54919
3.556
3.56008
3.56553
3.57508
3.5693
3.56445
3.56231
3.5554
3.54945
3.55222
3.55309
3.55027
3.55536
3.55788
3.55719
3.56257
3.56288
3.56091
3.56545
3.56754
3.56858
3.57052
3.57433
3.57972
3.5856
3.59544
3.58955
3.58378
3.59303
3.59884
3.6044
3.6107
3.6052
3.59912
3.59295
3.58727
3.57862
3.57443
3.57159
3.56905
3.57258
3.57714
3.58175
3.58707
3.58222
3.57754
3.57331
3.56826
3.56603
3.56168
3.5563
3.55024
3.54527
3.53781
3.54171
3.547
3.55203
3.55564
3.55746
3.56481
3.56932
3.57471
3.57907
3.58509
3.59108
3.59784
3.60457
3.61132
3.61714
3.62306
3.61669
3.60932
3.61496
3.62273
3.63003
3.63935
3.63048
3.62227
3.61452
3.60723
3.60213
3.59509
3.58871
3.58236
3.58612
3.59273
3.59975
3.60794
3.60268
3.59859
3.60793
3.612
3.61609
3.62153
3.62828
3.63588
3.64519
3.65198
3.64214
3.63414
3.62776
3.62249
3.61863
3.61588
3.61538
3.60518
3.59662
3.58179
3.5775
3.573
3.57671
3.59354
3.60542
3.6205
5.49632
5.50165
5.50743
5.51309
5.52022
5.53508
5.55487
5.56613
5.56107
5.55762
5.53371
5.56374
5.549
5.65887
5.65424
)
;

boundaryField
{
    bottom
    {
        type            symmetryPlane;
    }
    inlet1
    {
        type            calculated;
        value           uniform 1.17641;
    }
    outlet1
    {
        type            calculated;
        value           nonuniform List<scalar> 0();
    }
    top
    {
        type            calculated;
        value           nonuniform List<scalar> 0();
    }
    wall1
    {
        type            calculated;
        value           nonuniform List<scalar> 3(3.76968 3.72273 3.69823);
    }
    bottomEmptyFaces
    {
        type            empty;
    }
    topEmptyFaces
    {
        type            empty;
    }
    procBoundary0to1
    {
        type            processor;
        value           nonuniform List<scalar> 
17
(
3.67738
3.54398
3.55185
3.56292
3.57412
3.58432
3.5929
3.59869
3.60242
3.60513
3.61042
3.61547
3.62288
3.63361
3.64492
3.6561
3.66171
)
;
    }
    procBoundary0to4
    {
        type            processor;
        value           nonuniform List<scalar> 
18
(
21.1482
3.52331
3.54706
3.55349
3.55593
3.5556
3.55221
3.54471
3.53558
3.52692
3.51999
3.51763
3.52192
3.52649
3.52699
3.52355
3.51689
5.49099
)
;
    }
}


// ************************************************************************* //
