/*--------------------------------*- C++ -*----------------------------------*\
| =========                 |                                                 |
| \\      /  F ield         | OpenFOAM: The Open Source CFD Toolbox           |
|  \\    /   O peration     | Version:  2306                                  |
|   \\  /    A nd           | Website:  www.openfoam.com                      |
|    \\/     M anipulation  |                                                 |
\*---------------------------------------------------------------------------*/
FoamFile
{
    version     2.0;
    format      ascii;
    arch        "LSB;label=32;scalar=64";
    class       volScalarField;
    location    "0.1";
    object      T;
}
// * * * * * * * * * * * * * * * * * * * * * * * * * * * * * * * * * * * * * //

dimensions      [0 0 0 1 0 0 0];

internalField   nonuniform List<scalar> 
306
(
612.639
605.279
834.624
839.318
848.257
853.931
849.333
844.753
841.224
841.644
840.665
842.338
844.264
845.434
845.996
846.291
846.534
846.789
847.134
554.532
556.006
558.879
554.439
553.637
552.477
551.533
550.847
550.248
549.777
549.373
549.072
548.857
548.57
548.183
546.913
548.907
551.414
553.554
552.873
550.744
548.076
547.447
547.321
547.831
548.766
549.598
549.945
549.752
549.723
549.894
550.282
551.444
551.28
551.624
551.885
551.915
552.07
552.083
551.756
551.746
551.629
551.39
551.628
550.372
550.749
551.217
551.067
550.724
550.43
550.363
550.258
550.646
550.678
550.487
550.541
550.649
550.552
550.325
550.447
550.085
549.953
549.797
550.197
550.445
550.58
550.51
550.334
550.323
550.529
550.806
551.065
551.278
551.411
551.436
551.376
551.191
551.168
551.161
551.115
551.181
551.225
551.258
551.261
551.169
550.996
550.829
551.047
551.188
551.136
550.988
550.755
550.799
551.039
551.171
551.175
551.044
550.984
550.949
551.284
551.492
551.185
551.184
551.253
551.172
550.966
551.265
551.38
551.34
551.657
551.698
551.616
552.132
552.159
552.076
551.871
551.654
552.03
552.363
552.669
552.839
552.508
552.254
552.512
552.618
552.599
552.94
553.028
552.856
553.246
553.385
553.118
553.166
553.678
553.972
553.207
553.069
553.014
553.27
554.969
554.125
553.374
552.399
552.498
552.805
552.701
552.458
551.982
551.401
550.983
550.648
550.505
550.484
550.577
550.779
550.535
550.282
550.117
549.885
550.051
550.312
550.196
549.905
549.684
549.617
549.909
550.174
550.387
550.469
550.323
550.069
550.177
550.086
549.686
549.74
549.67
549.158
549.245
549.287
549.389
549.596
549.881
550.192
550.288
549.926
549.57
549.825
550.23
550.621
551.092
550.718
550.292
549.857
549.446
549.253
549.015
548.863
548.694
548.438
548.786
549.095
549.427
549.045
548.684
548.367
548.105
548.47
548.965
549.449
549.805
550.05
549.6
549.295
548.892
548.374
547.807
547.384
547.843
548.504
548.874
549.186
549.602
550.021
550.482
550.928
551.359
551.711
552.162
551.819
551.418
551.61
551.972
552.341
552.403
551.966
551.59
551.255
551.263
551.026
550.632
550.28
549.936
550.468
550.692
550.953
551.017
550.887
550.836
550.008
550.209
550.434
550.734
551.095
551.502
552.007
551.692
551.055
550.513
550.05
549.626
549.261
548.938
548.786
549.906
550.913
550.383
549.678
549.42
550.193
550.858
549.907
548.764
617.674
617.36
617.179
617.031
616.879
616.768
616.387
615.406
614.467
614.489
613.961
616.156
620.312
623.61
621.005
)
;

boundaryField
{
    bottom
    {
        type            symmetryPlane;
    }
    inlet1
    {
        type            fixedValue;
        value           uniform 300;
    }
    outlet1
    {
        type            zeroGradient;
    }
    top
    {
        type            zeroGradient;
    }
    wall1
    {
        type            zeroGradient;
    }
    bottomEmptyFaces
    {
        type            empty;
    }
    topEmptyFaces
    {
        type            empty;
    }
    procBoundary0to1
    {
        type            processor;
        value           nonuniform List<scalar> 
17
(
553.355
550.954
550.901
550.965
551.01
550.998
550.932
550.819
550.741
550.772
551.144
551.52
551.859
552.201
552.477
552.735
552.63
)
;
    }
    procBoundary0to4
    {
        type            processor;
        value           nonuniform List<scalar> 
18
(
847.388
550.599
551.618
552.073
552.272
552.269
552.072
551.615
551.062
550.56
550.177
550.06
550.354
550.668
550.722
550.554
550.162
617.996
)
;
    }
}


// ************************************************************************* //
