/*--------------------------------*- C++ -*----------------------------------*\
| =========                 |                                                 |
| \\      /  F ield         | OpenFOAM: The Open Source CFD Toolbox           |
|  \\    /   O peration     | Version:  2306                                  |
|   \\  /    A nd           | Website:  www.openfoam.com                      |
|    \\/     M anipulation  |                                                 |
\*---------------------------------------------------------------------------*/
FoamFile
{
    version     2.0;
    format      ascii;
    arch        "LSB;label=32;scalar=64";
    class       volVectorField;
    location    "0.1";
    object      U;
}
// * * * * * * * * * * * * * * * * * * * * * * * * * * * * * * * * * * * * * //

dimensions      [0 1 -1 0 0 0 0];

internalField   nonuniform List<vector> 
306
(
(19.453 7.34325 0)
(19.6114 0.0238558 0)
(-539.288 -0.0134219 0)
(-544.404 11.2953 0)
(-517.863 3.55131 0)
(-534.62 -4.39835 0)
(-520.022 -8.34063 0)
(-538.841 -12.0088 0)
(-534.692 -5.86769 0)
(-539.92 -2.47595 0)
(-535.104 2.38102 0)
(-533.882 4.92304 0)
(-531.917 6.0716 0)
(-531.571 6.49081 0)
(-531.322 7.11003 0)
(-530.959 7.32989 0)
(-530.597 7.76682 0)
(-530.152 7.77809 0)
(-529.766 8.21819 0)
(229.746 26.8264 0)
(224.713 21.5846 0)
(212.076 15.4096 0)
(215.589 4.67993 0)
(225.177 2.77978 0)
(230.089 1.31809 0)
(234.08 1.15038 0)
(237.03 0.772901 0)
(239.366 0.590496 0)
(241.097 0.351686 0)
(242.277 0.0826443 0)
(242.784 -0.431538 0)
(242.063 -1.38305 0)
(240.215 -2.39971 0)
(236.865 -3.30339 0)
(231.614 -0.139828 0)
(243.045 -3.48623 0)
(250.068 -3.83375 0)
(252.486 -2.57749 0)
(250.231 -1.48269 0)
(243.198 -3.34869 0)
(237.153 -3.02391 0)
(235.834 -0.0955477 0)
(237.701 2.32817 0)
(241.513 3.57627 0)
(245.057 4.98884 0)
(247.059 6.21072 0)
(247.689 7.26298 0)
(247.412 7.88155 0)
(247.519 8.41737 0)
(248.293 8.88902 0)
(249.387 9.68066 0)
(240.487 25.0649 0)
(239.57 25.0386 0)
(240.466 23.7917 0)
(241.433 23.8009 0)
(242.381 19.7684 0)
(242.261 21.1003 0)
(241.962 22.4853 0)
(241.021 22.394 0)
(241.425 20.998 0)
(241.63 19.6559 0)
(241.686 18.3695 0)
(242.31 18.5863 0)
(242.544 15.9739 0)
(242.182 16.7018 0)
(242.174 17.5837 0)
(241.722 17.1755 0)
(241.873 16.1347 0)
(242.326 15.2787 0)
(243.465 14.5256 0)
(243.625 15.3233 0)
(248.72 13.0765 0)
(247.192 14.257 0)
(245.377 14.8332 0)
(245.191 13.9533 0)
(246.915 13.323 0)
(248.355 12.1711 0)
(249.137 10.7314 0)
(249.585 11.4945 0)
(250.624 10.7652 0)
(250.073 10.1165 0)
(249.527 9.44164 0)
(248.643 9.9867 0)
(247.882 11.2807 0)
(246.492 12.3592 0)
(244.807 13.1174 0)
(243.051 13.8731 0)
(241.811 14.8067 0)
(241.203 15.8416 0)
(240.901 16.9522 0)
(240.675 18.1368 0)
(240.479 19.4139 0)
(240.216 20.7732 0)
(239.758 22.1226 0)
(239.198 23.4328 0)
(238.505 24.6063 0)
(236.731 23.9452 0)
(234.11 23.2126 0)
(231.107 22.5183 0)
(231.753 21.2345 0)
(234.843 22.0163 0)
(237.421 22.8128 0)
(238.032 21.6111 0)
(238.5 20.3391 0)
(238.867 19.0251 0)
(236.549 18.2884 0)
(236.065 19.5399 0)
(235.528 20.7907 0)
(232.394 19.9898 0)
(232.942 18.755 0)
(233.467 17.5153 0)
(230.415 16.5139 0)
(229.973 17.7814 0)
(229.519 19.1308 0)
(229.044 20.5991 0)
(228.588 22.1916 0)
(226.946 22.3764 0)
(226.242 22.8084 0)
(226.385 23.4128 0)
(226.485 21.3486 0)
(226.566 20.8075 0)
(227.286 20.5336 0)
(227.619 18.8214 0)
(227.976 17.2703 0)
(228.299 15.8918 0)
(227.549 15.309 0)
(227.223 16.993 0)
(226.933 18.8542 0)
(226.796 19.1649 0)
(227.127 16.9871 0)
(227.583 14.9625 0)
(228.77 14.9685 0)
(228.051 17.1729 0)
(227.788 19.5254 0)
(227.644 21.7573 0)
(227.874 23.7554 0)
(229.886 24.1561 0)
(230.914 24.3614 0)
(230.651 24.5472 0)
(230.472 22.1926 0)
(230.789 22.3651 0)
(229.627 22.072 0)
(229.621 19.7826 0)
(230.043 17.1867 0)
(230.966 14.5903 0)
(232.64 14.046 0)
(231.371 17.1648 0)
(230.375 20.0594 0)
(229.255 19.7485 0)
(230.837 15.7892 0)
(232.541 12.0739 0)
(230.308 9.78241 0)
(227.563 13.7898 0)
(225.197 19.242 0)
(228.081 21.7396 0)
(229.275 24.8833 0)
(228.578 26.989 0)
(225.217 23.5482 0)
(218.469 20.4532 0)
(221.685 10.6713 0)
(227.336 7.19997 0)
(231.119 4.66167 0)
(233.83 7.16297 0)
(235.65 9.66706 0)
(234.853 11.6656 0)
(232.252 12.3212 0)
(229.465 12.9927 0)
(227.947 13.1785 0)
(227.763 13.7919 0)
(228.666 14.5987 0)
(230.958 15.2864 0)
(234.082 16.2825 0)
(237.078 17.0722 0)
(239.25 17.7355 0)
(239.687 16.5128 0)
(240.193 15.3895 0)
(240.981 14.3231 0)
(239.304 13.8632 0)
(238.344 14.8847 0)
(237.669 15.9301 0)
(234.797 15.0943 0)
(235.619 14.0112 0)
(236.689 12.9977 0)
(238.226 11.94 0)
(240.79 12.789 0)
(242.332 13.2767 0)
(244.171 12.3028 0)
(245.92 11.369 0)
(247.342 10.3452 0)
(246.231 9.38716 0)
(244.586 10.4761 0)
(242.692 11.6408 0)
(240.133 10.773 0)
(242.178 9.52322 0)
(244.156 8.36217 0)
(240.619 7.3517 0)
(238.472 8.57398 0)
(236.507 9.8523 0)
(234.775 11.0018 0)
(233.435 12.0471 0)
(232.426 13.0435 0)
(231.626 14.1115 0)
(229.19 13.3694 0)
(229.878 12.2152 0)
(230.723 11.1401 0)
(229.451 10.093 0)
(228.765 11.2122 0)
(228.183 12.4367 0)
(228.416 11.6351 0)
(229.009 10.2871 0)
(229.631 9.0622 0)
(230.323 7.93954 0)
(230.229 9.03466 0)
(231.754 10.0917 0)
(233.052 8.94975 0)
(234.556 7.62472 0)
(236.338 6.18275 0)
(233.311 5.61424 0)
(232.104 6.81649 0)
(231.113 7.95902 0)
(231.02 6.83838 0)
(231.827 5.76532 0)
(232.814 4.70087 0)
(233.5 3.37416 0)
(234.422 4.17975 0)
(238.174 4.73722 0)
(242.606 6.1322 0)
(245.691 7.18153 0)
(247.275 8.23644 0)
(248.142 9.15858 0)
(249.118 8.61613 0)
(248.478 7.65116 0)
(247.337 6.48226 0)
(244.924 5.39689 0)
(241.021 4.1131 0)
(236.943 3.16342 0)
(234.83 1.72713 0)
(236.742 1.42315 0)
(235.506 3.0082 0)
(234.842 4.19013 0)
(234.043 5.27493 0)
(233.33 6.35282 0)
(232.669 7.45994 0)
(231.846 8.55826 0)
(231.102 9.84198 0)
(230.232 11.2699 0)
(233.464 10.3045 0)
(234.952 8.8227 0)
(236.131 7.47856 0)
(240.477 6.57215 0)
(238.754 7.94803 0)
(236.646 9.44308 0)
(237.971 7.66507 0)
(240.365 6.19592 0)
(242.449 5.01426 0)
(244.388 4.02603 0)
(242.26 5.58091 0)
(237.443 6.47414 0)
(238.521 5.48146 0)
(239.591 4.5996 0)
(240.65 3.70076 0)
(247.21 3.03887 0)
(245.52 3.89553 0)
(243.896 4.6898 0)
(246.199 3.13004 0)
(247.904 2.219 0)
(249.658 1.28366 0)
(248.08 -0.919677 0)
(246.639 0.156735 0)
(245.29 1.15688 0)
(243.694 2.06516 0)
(241.847 3.03448 0)
(239.541 4.0504 0)
(236.946 5.50634 0)
(234.942 3.60037 0)
(237.754 2.5662 0)
(240.128 1.94291 0)
(241.898 1.33411 0)
(243.229 0.769457 0)
(244.094 0.179876 0)
(244.48 -0.587492 0)
(244.308 -1.69533 0)
(249.482 -2.04062 0)
(251.162 0.115596 0)
(248.641 1.69637 0)
(241.655 2.62901 0)
(243.589 1.40306 0)
(250.502 0.0978525 0)
(252.812 -1.02556 0)
(250.687 -2.86794 0)
(243.848 -2.86659 0)
(26.8916 8.90412 0)
(26.3913 8.69817 0)
(25.9978 8.92397 0)
(25.7282 8.81491 0)
(25.5619 8.88988 0)
(25.7405 8.62304 0)
(25.8486 7.43405 0)
(24.8997 4.89468 0)
(23.8776 1.48293 0)
(22.1118 -4.05353 0)
(23.2755 -8.69259 0)
(22.7038 -13.84 0)
(28.0984 -11.9778 0)
(25.0151 -10.0914 0)
(28.5104 -2.72389 0)
)
;

boundaryField
{
    bottom
    {
        type            symmetryPlane;
    }
    inlet1
    {
        type            fixedValue;
        value           uniform (754.6 0 0);
    }
    outlet1
    {
        type            zeroGradient;
    }
    top
    {
        type            zeroGradient;
    }
    wall1
    {
        type            slip;
    }
    bottomEmptyFaces
    {
        type            empty;
    }
    topEmptyFaces
    {
        type            empty;
    }
    procBoundary0to1
    {
        type            processor;
        value           nonuniform List<vector> 
17
(
(233.419 29.1784 0)
(239.467 26.3451 0)
(238.685 26.1398 0)
(237.789 25.5927 0)
(236.001 25.0058 0)
(233.349 24.3796 0)
(230.441 23.8863 0)
(228.123 23.8878 0)
(226.739 24.2545 0)
(226.12 24.7421 0)
(226.613 25.1831 0)
(228.47 25.3998 0)
(230.62 25.6699 0)
(231.775 25.6464 0)
(231.858 26.1369 0)
(231.564 27.0337 0)
(231.862 29.1497 0)
)
;
    }
    procBoundary0to4
    {
        type            processor;
        value           nonuniform List<vector> 
18
(
(-529.393 8.10251 0)
(250.415 10.7402 0)
(241.084 24.8856 0)
(241.967 23.5982 0)
(242.431 22.3642 0)
(242.696 21.1731 0)
(242.701 20.0485 0)
(242.424 19.0209 0)
(242.137 18.1859 0)
(242.082 17.4692 0)
(242.418 16.8358 0)
(243.482 16.1575 0)
(245.306 15.6102 0)
(247.295 15.0757 0)
(248.955 13.9779 0)
(250.025 12.3235 0)
(251.167 11.4888 0)
(27.4312 8.73176 0)
)
;
    }
}


// ************************************************************************* //
