/*--------------------------------*- C++ -*----------------------------------*\
| =========                 |                                                 |
| \\      /  F ield         | OpenFOAM: The Open Source CFD Toolbox           |
|  \\    /   O peration     | Version:  2306                                  |
|   \\  /    A nd           | Website:  www.openfoam.com                      |
|    \\/     M anipulation  |                                                 |
\*---------------------------------------------------------------------------*/
FoamFile
{
    version     2.0;
    format      ascii;
    arch        "LSB;label=32;scalar=64";
    class       volScalarField;
    location    "0.02";
    object      p;
}
// * * * * * * * * * * * * * * * * * * * * * * * * * * * * * * * * * * * * * //

dimensions      [1 -1 -2 0 0 0 0];

internalField   nonuniform List<scalar> 
221
(
226769
234407
245087
256957
265826
271178
275342
281029
270665
252543
228478
212342
208393
208486
216085
224064
233406
244294
257336
271916
286476
297482
300547
271158
240928
221124
216248
216179
214208
201563
188166
180118
185398
220404
312889
401007
423097
439536
452760
231507
226659
230119
232699
236281
237515
249913
243426
254211
264316
274093
264163
250007
244882
241059
239151
238765
239153
248044
247035
245303
250548
255262
257172
265389
270036
266972
250402
259101
260202
249433
242782
235676
234022
243084
256568
246452
242123
237212
245845
244368
241842
238302
245523
251409
254347
240926
227049
219858
217620
220842
228729
229045
233194
250084
244683
240619
244466
235089
227766
237075
248706
264399
256403
250748
243178
249147
250187
244713
230967
257585
280923
284450
277140
278802
269951
250804
250859
222795
232709
258416
290506
301907
385994
360379
331501
319988
353148
382917
411196
410407
426435
442752
428981
431116
449228
432210
410913
376124
340508
301895
271333
244153
220101
208578
213299
230188
247706
251358
252567
257094
264040
266354
263243
254540
245138
235940
228511
225646
227660
234053
242144
241520
237029
232647
218822
229249
220263
216953
220012
217197
211225
212264
224686
225700
234701
244682
255667
256697
244486
233988
270155
267496
278169
280988
275623
290733
291223
282829
267231
259971
250090
238261
218218
214491
226072
245926
211577
207585
205275
212171
227610
215376
209849
209942
225308
247568
277104
318852
364714
349046
287736
248608
407819
410143
432582
449770
450609
433808
436450
417504
452536
)
;

boundaryField
{
    bottom
    {
        type            symmetryPlane;
    }
    inlet1
    {
        type            fixedValue;
        value           nonuniform List<scalar> 0();
    }
    outlet1
    {
        type            zeroGradient;
    }
    top
    {
        type            zeroGradient;
    }
    wall1
    {
        type            zeroGradient;
    }
    bottomEmptyFaces
    {
        type            empty;
    }
    topEmptyFaces
    {
        type            empty;
    }
    procBoundary3to2
    {
        type            processor;
        value           nonuniform List<scalar> 10(463966 456371 445616 445616 448047 448047 463450 464387 465292 465344);
    }
    procBoundary3to7
    {
        type            processor;
        value           nonuniform List<scalar> 
34
(
221635
440056
424256
225718
231509
239633
248609
258108
267717
275510
278562
271168
253425
239477
227084
215805
210655
209985
215576
223074
233995
249100
269489
293090
311938
310311
290404
307312
307312
338212
363609
386418
408951
408951
)
;
    }
}


// ************************************************************************* //
