/*--------------------------------*- C++ -*----------------------------------*\
| =========                 |                                                 |
| \\      /  F ield         | OpenFOAM: The Open Source CFD Toolbox           |
|  \\    /   O peration     | Version:  2306                                  |
|   \\  /    A nd           | Website:  www.openfoam.com                      |
|    \\/     M anipulation  |                                                 |
\*---------------------------------------------------------------------------*/
FoamFile
{
    version     2.0;
    format      ascii;
    arch        "LSB;label=32;scalar=64";
    class       volScalarField;
    location    "0.02";
    object      T;
}
// * * * * * * * * * * * * * * * * * * * * * * * * * * * * * * * * * * * * * //

dimensions      [0 0 0 1 0 0 0];

internalField   nonuniform List<scalar> 
221
(
424.241
427.808
433.168
439.488
444.585
447.825
450.087
452.744
447.934
439.124
426.702
417.825
415.579
415.627
419.965
424.405
429.435
435.087
441.588
448.597
455.377
460.395
461.83
448.641
433.834
423.345
420.745
421.006
420.241
413.208
405.299
400.257
401.653
420.601
463.147
497.557
505.054
510.603
514.955
426.659
424.164
425.521
426.88
428.596
429.231
435.914
432.685
438.94
443.764
449.206
444.543
437.599
434.305
431.49
430.079
429.905
430.556
435.068
434.048
433.14
435.748
438.081
439.539
443.456
445.62
444.113
435.545
439.812
440.45
435.147
431.78
428.083
427.18
431.84
439.088
434.086
431.946
429.488
433.261
432.508
431.2
429.349
432.982
435.865
437.311
430.815
424.156
420.281
419.054
420.791
424.448
424.623
426.815
435.187
432.454
430.38
432.311
427.747
424.476
429.295
435.163
442.85
438.421
435.724
431.903
434.667
435.171
432.219
425.144
438.995
450.518
452.091
448.599
449.213
444.776
435.567
435.649
420.746
425.907
438.981
453.91
459.267
492.809
483.239
471.767
466.682
480.066
491.345
501.534
501.564
507.587
513.145
508.019
508.406
514.273
508.573
501.241
488.641
474.877
458.808
444.978
431.794
418.948
412.955
415.725
424.895
433.969
435.944
436.563
438.824
442.249
443.469
442.057
437.94
433.324
428.693
424.845
423.426
424.538
427.939
432.141
431.807
430.341
428.681
421.223
426.279
421.408
419.573
421.195
420.317
416.972
417.561
424.443
424.252
428.973
434.065
439.507
440.901
434.832
429.41
447.356
445.107
449.991
451.213
448.535
456.757
457.03
453.244
446.007
441.097
436.21
430.23
419.411
418.796
425.25
435.603
417.017
413.216
411.791
415.282
423.65
418.59
416.055
416.115
423.565
433.752
447.786
465.938
484.192
477.94
452.69
434.851
499.955
500.83
508.551
514.295
514.448
508.85
509.638
503.239
514.964
)
;

boundaryField
{
    bottom
    {
        type            symmetryPlane;
    }
    inlet1
    {
        type            fixedValue;
        value           nonuniform List<scalar> 0();
    }
    outlet1
    {
        type            zeroGradient;
    }
    top
    {
        type            zeroGradient;
    }
    wall1
    {
        type            zeroGradient;
    }
    bottomEmptyFaces
    {
        type            empty;
    }
    topEmptyFaces
    {
        type            empty;
    }
    procBoundary3to2
    {
        type            processor;
        value           nonuniform List<scalar> 10(518.565 517.69 513.65 513.65 514.1 514.1 518.924 519.055 519.225 519.132);
    }
    procBoundary3to7
    {
        type            processor;
        value           nonuniform List<scalar> 
34
(
421.974
512.617
507.258
424.164
427.19
431.46
435.996
440.668
445.276
448.922
450.321
446.855
438.276
431.287
424.841
418.701
415.831
415.456
418.581
422.665
428.396
436.011
445.912
456.64
464.787
463.63
454.849
462.021
462.021
474.905
484.922
493.435
501.466
501.466
)
;
    }
}


// ************************************************************************* //
