/*--------------------------------*- C++ -*----------------------------------*\
| =========                 |                                                 |
| \\      /  F ield         | OpenFOAM: The Open Source CFD Toolbox           |
|  \\    /   O peration     | Version:  2306                                  |
|   \\  /    A nd           | Website:  www.openfoam.com                      |
|    \\/     M anipulation  |                                                 |
\*---------------------------------------------------------------------------*/
FoamFile
{
    version     2.0;
    format      ascii;
    arch        "LSB;label=32;scalar=64";
    class       volVectorField;
    location    "0.02";
    object      U;
}
// * * * * * * * * * * * * * * * * * * * * * * * * * * * * * * * * * * * * * //

dimensions      [0 1 -1 0 0 0 0];

internalField   nonuniform List<vector> 
221
(
(554.279 -6.45386 0)
(548.086 -5.00415 0)
(538.631 -1.35343 0)
(528.108 2.93655 0)
(520.298 4.30756 0)
(514.224 4.07826 0)
(511.875 -0.624176 0)
(506.615 -3.76081 0)
(515.114 -8.52539 0)
(528.247 -5.70606 0)
(551.792 -4.95728 0)
(569.235 -0.678677 0)
(574.236 1.70617 0)
(576.512 4.28352 0)
(569.597 2.73341 0)
(561.892 3.37149 0)
(552.665 3.38058 0)
(542.04 3.51547 0)
(529.559 3.22514 0)
(515.926 2.35626 0)
(502.559 0.666371 0)
(492.407 -2.86313 0)
(487.639 -7.30445 0)
(512.657 -7.43236 0)
(541.857 -5.54341 0)
(563.766 -2.39881 0)
(569.884 -2.17436 0)
(570.165 -4.21088 0)
(571.989 -6.68276 0)
(580.211 -3.71912 0)
(589.296 12.9609 0)
(589.228 40.466 0)
(583.708 80.6635 0)
(539.542 114.722 0)
(461.995 121.391 0)
(396.721 107.468 0)
(373.169 104.358 0)
(358.864 97.9701 0)
(345.781 95.2471 0)
(548.863 -15.8009 0)
(553.75 -13.9453 0)
(551.149 -15.307 0)
(548.694 -19.6318 0)
(546.02 -21.9206 0)
(544.282 -14.8965 0)
(533.936 -11.3131 0)
(539.378 -21.0109 0)
(529.041 -15.8547 0)
(521.512 -5.90773 0)
(511.64 -1.46201 0)
(519.908 -9.26775 0)
(536.726 -17.6033 0)
(538.913 -24.6893 0)
(542.042 -27.3344 0)
(542.649 -25.779 0)
(543.114 -21.2483 0)
(541.46 -16.2801 0)
(533.233 -15.8041 0)
(536.02 -20.7194 0)
(538.469 -26.0328 0)
(535.342 -23.0134 0)
(529.379 -19.8207 0)
(525.139 -15.6638 0)
(518.502 -13.9353 0)
(515.452 -8.97354 0)
(516.065 2.04802 0)
(534.563 8.93378 0)
(526.566 -5.50569 0)
(526.756 -16.1479 0)
(536.104 -13.942 0)
(543.1 0.190155 0)
(549.097 13.6628 0)
(552.31 23.668 0)
(541.142 22.6922 0)
(526.607 17.7726 0)
(535.422 29.511 0)
(540.484 33.6476 0)
(542.77 29.2642 0)
(538.368 33.0687 0)
(539.495 33.5757 0)
(542.909 31.0632 0)
(547.569 28.6346 0)
(541.132 30.2294 0)
(535.022 30.4989 0)
(533.543 24.4909 0)
(543.248 21.852 0)
(552.633 17.804 0)
(559.589 5.14975 0)
(562.153 -5.39192 0)
(558.801 -14.6952 0)
(554.299 -17.4312 0)
(553.256 -5.6461 0)
(548.786 8.51271 0)
(534.418 11.2926 0)
(540.453 -5.09245 0)
(543.05 -19.8043 0)
(539.259 -30.9247 0)
(547.159 -26.227 0)
(552.21 -21.0126 0)
(542.584 -27.8918 0)
(532.451 -31.6471 0)
(519.83 -31.1717 0)
(526.973 -40.0211 0)
(532.482 -39.1698 0)
(540.107 -33.742 0)
(534.757 -37.1571 0)
(532.833 -40.0401 0)
(538.249 -37.7876 0)
(552.926 -16.8653 0)
(530.181 -24.9403 0)
(508.422 -22.6105 0)
(501.473 -0.398267 0)
(507.548 29.6537 0)
(503.075 51.496 0)
(512.214 45.8231 0)
(536.445 30.8133 0)
(530.084 2.29155 0)
(557.626 2.71592 0)
(552.31 23.5099 0)
(528.101 33.5065 0)
(498.698 46.2869 0)
(486.282 51.5628 0)
(407.52 70.2493 0)
(431.454 66.9692 0)
(456.964 60.7897 0)
(469.405 60.475 0)
(439.45 70.3664 0)
(411.77 75.8476 0)
(386.404 76.7378 0)
(385.621 70.1909 0)
(367.596 62.5934 0)
(353.328 61.2987 0)
(368.576 67.7022 0)
(367.493 73.4881 0)
(351.722 77.0141 0)
(366.846 79.4103 0)
(387.932 83.9239 0)
(419.718 82.0943 0)
(452.32 72.9395 0)
(488.319 57.2482 0)
(515.918 38.3791 0)
(542.886 17.8334 0)
(564.85 7.63782 0)
(573.232 -1.94275 0)
(567.729 -11.1474 0)
(552.531 -24.1387 0)
(534.939 -34.4389 0)
(533.371 -35.2299 0)
(531.937 -31.3776 0)
(528.198 -19.1227 0)
(521.495 -2.60604 0)
(520.92 12.8102 0)
(525.065 22.4428 0)
(533.2 24.3527 0)
(542.339 23.908 0)
(551.283 22.5685 0)
(557.732 20.8986 0)
(559.515 15.5291 0)
(557.135 5.82815 0)
(549.201 -8.78483 0)
(543.21 -20.6225 0)
(541.976 -29.1529 0)
(546.816 -27.2873 0)
(550.648 -18.9464 0)
(563.769 -8.56804 0)
(553.534 -15.2284 0)
(562.426 -2.60529 0)
(566.778 7.24765 0)
(564.437 13.4677 0)
(566.723 8.87344 0)
(573.512 5.63178 0)
(570.549 -0.390849 0)
(560.121 9.03094 0)
(560.117 15.2676 0)
(551.292 16.1549 0)
(541.438 17.3348 0)
(530.823 17.6744 0)
(527.73 10.8431 0)
(539.763 10.6558 0)
(550.403 9.80146 0)
(515.092 9.68853 0)
(519.947 15.8581 0)
(510.867 10.6563 0)
(505.293 -0.0216836 0)
(510.147 -13.8336 0)
(493.819 -7.59479 0)
(496.749 1.50367 0)
(503.844 6.98382 0)
(521.039 -19.3982 0)
(524.659 -27.5923 0)
(534.112 -32.1327 0)
(542.999 -22.5996 0)
(564.405 -9.76905 0)
(571.096 -2.2913 0)
(557.5 -9.55113 0)
(537.431 -21.8214 0)
(575.472 -2.14021 0)
(575.298 -5.30222 0)
(577.436 -6.31118 0)
(569.333 -5.26259 0)
(555.184 5.68444 0)
(582.514 -13.4139 0)
(583.641 -16.9151 0)
(579.313 -10.3883 0)
(573.065 7.56409 0)
(535.584 27.1807 0)
(510.882 49.3346 0)
(471.277 72.7303 0)
(430.183 88.0194 0)
(444.793 90.9688 0)
(505.382 67.2243 0)
(552.348 33.5472 0)
(389.308 99.004 0)
(389.966 91.1657 0)
(365.926 85.4528 0)
(350.683 82.1464 0)
(349.079 86.6732 0)
(364.229 90.6489 0)
(360.77 94.6268 0)
(379.012 98.6539 0)
(346.351 90.2187 0)
)
;

boundaryField
{
    bottom
    {
        type            symmetryPlane;
    }
    inlet1
    {
        type            fixedValue;
        value           nonuniform List<vector> 0();
    }
    outlet1
    {
        type            zeroGradient;
    }
    top
    {
        type            zeroGradient;
    }
    wall1
    {
        type            slip;
    }
    bottomEmptyFaces
    {
        type            empty;
    }
    topEmptyFaces
    {
        type            empty;
    }
    procBoundary3to2
    {
        type            processor;
        value           nonuniform List<vector> 10((336.835 90.9578 0) (340.885 58.5463 0) (354.198 66.28 0) (354.198 66.28 0) (352.75 71.7077 0) (352.75 71.7077 0) (338.857 72.9488 0) (337.603 77.8825 0) (336.393 82.318 0) (334.601 87.118 0));
    }
    procBoundary3to7
    {
        type            processor;
        value           nonuniform List<vector> 
34
(
(558.595 -6.00326 0)
(352.121 56.6715 0)
(366.17 58.2593 0)
(553.031 -11.0558 0)
(548.755 -10.7712 0)
(540.666 -11.2103 0)
(532.153 -10.7989 0)
(523.179 -10.8949 0)
(514.483 -9.99953 0)
(507.949 -7.58536 0)
(504.776 -0.803376 0)
(511.216 10.2283 0)
(527.024 23.5262 0)
(539.99 29.6278 0)
(550.092 21.988 0)
(562.339 10.5339 0)
(566.139 2.78711 0)
(568.42 -5.15165 0)
(562.07 -10.9649 0)
(555.351 -15.4252 0)
(544.478 -20.4559 0)
(531.157 -21.876 0)
(512.661 -20.7565 0)
(492.454 -15.6249 0)
(477.308 -3.50482 0)
(472.419 22.4347 0)
(493.486 53.0915 0)
(477.08 56.3837 0)
(477.08 56.3837 0)
(448.928 61.3324 0)
(425.258 65.3762 0)
(403.818 65.3531 0)
(383.593 64.7758 0)
(383.593 64.7758 0)
)
;
    }
}


// ************************************************************************* //
