/*--------------------------------*- C++ -*----------------------------------*\
| =========                 |                                                 |
| \\      /  F ield         | OpenFOAM: The Open Source CFD Toolbox           |
|  \\    /   O peration     | Version:  2306                                  |
|   \\  /    A nd           | Website:  www.openfoam.com                      |
|    \\/     M anipulation  |                                                 |
\*---------------------------------------------------------------------------*/
FoamFile
{
    version     2.0;
    format      ascii;
    arch        "LSB;label=32;scalar=64";
    class       volScalarField;
    location    "0.2";
    object      p;
}
// * * * * * * * * * * * * * * * * * * * * * * * * * * * * * * * * * * * * * //

dimensions      [1 -1 -2 0 0 0 0];

internalField   nonuniform List<scalar> 
290
(
562217
564643
567144
571026
575099
581159
586842
592637
599881
585995
583857
580535
578212
576954
576242
576159
576798
577435
578543
579800
581348
584038
550931
549890
549120
551127
551630
552342
553370
552309
558205
556159
554078
554805
556742
559017
561056
559844
561226
561352
560927
562431
563058
563025
562516
560667
559554
559407
559854
561565
560705
560342
560608
560329
562976
561578
561629
563217
563336
561918
561432
561700
562506
563585
564380
564708
564553
563620
561787
559379
557188
555674
554719
554153
553841
553601
556359
556096
555964
556122
556152
558072
558111
557713
558597
559570
559713
559812
558081
556329
556798
557783
559512
559901
558756
558230
559951
560268
560938
562593
562281
561979
561659
561282
560613
558812
558651
561295
562731
564165
561909
558709
559449
562812
565683
568124
565748
563589
564271
564871
565281
568415
567731
566832
569659
570772
571703
574861
573872
572537
570588
567318
564118
560669
562131
565408
568840
570041
566022
562820
560486
574617
572934
575119
577076
577940
581394
581072
577684
578909
576216
584362
584049
588801
584647
582460
580075
577906
574859
571869
568694
565689
563400
562291
561940
561972
564284
565709
566207
567484
566481
564482
564493
566829
568401
569037
567669
566092
565583
564637
563587
565695
566710
567388
569024
568613
567802
569690
570198
570390
570077
568990
567125
564979
566413
567805
569561
570683
569708
569010
571768
571823
572142
572590
571580
570932
571543
571488
571085
572100
572238
572142
572928
572958
572818
572654
571842
570476
568940
566786
564722
562895
562788
563655
564450
564190
565982
565770
567551
568111
569828
569343
570938
571420
572475
572229
573442
573449
573407
573552
573746
573812
573748
573813
574057
574516
576971
575981
575304
576247
577286
578661
579945
578016
576734
576070
575585
574850
574650
574552
574416
575600
575471
575341
575882
576202
576718
577610
576645
576200
576311
577018
578326
580705
577966
578643
578249
577043
575662
574320
574502
574691
576315
576007
577648
578116
580021
579076
579543
580799
)
;

boundaryField
{
    bottom
    {
        type            symmetryPlane;
    }
    inlet1
    {
        type            fixedValue;
        value           nonuniform List<scalar> 0();
    }
    outlet1
    {
        type            zeroGradient;
    }
    top
    {
        type            zeroGradient;
    }
    wall1
    {
        type            zeroGradient;
    }
    bottomEmptyFaces
    {
        type            empty;
    }
    topEmptyFaces
    {
        type            empty;
    }
    procBoundary1to0
    {
        type            processor;
        value           nonuniform List<scalar> 
17
(
588508
564210
564764
565083
565283
565637
566404
567611
569177
570660
572139
573568
575178
576964
578904
581334
582375
)
;
    }
    procBoundary1to2
    {
        type            processor;
        value           nonuniform List<scalar> 
17
(
559545
559545
550536
548464
552908
553324
553251
556545
555584
555500
556000
556000
554944
554944
558008
559486
559486
)
;
    }
    procBoundary1to5
    {
        type            processor;
        value           nonuniform List<scalar> 
18
(
547770
548699
549949
551536
553412
555363
557067
558350
559185
559541
559428
558947
558559
558638
559246
560274
561384
562421
)
;
    }
}


// ************************************************************************* //
