/*--------------------------------*- C++ -*----------------------------------*\
| =========                 |                                                 |
| \\      /  F ield         | OpenFOAM: The Open Source CFD Toolbox           |
|  \\    /   O peration     | Version:  2306                                  |
|   \\  /    A nd           | Website:  www.openfoam.com                      |
|    \\/     M anipulation  |                                                 |
\*---------------------------------------------------------------------------*/
FoamFile
{
    version     2.0;
    format      ascii;
    arch        "LSB;label=32;scalar=64";
    class       volScalarField;
    location    "0.2";
    object      T;
}
// * * * * * * * * * * * * * * * * * * * * * * * * * * * * * * * * * * * * * //

dimensions      [0 0 0 1 0 0 0];

internalField   nonuniform List<scalar> 
290
(
547.714
548.377
549.058
550.128
551.234
552.853
554.41
555.997
557.936
554.152
553.511
552.589
551.93
551.566
551.356
551.327
551.46
551.586
551.9
552.245
552.647
553.335
547.313
546.932
546.627
546.766
546.99
547.276
547.644
547.774
549.656
549.005
548.344
548.114
548.731
549.448
550.096
550.183
550.772
550.756
550.561
550.557
550.818
550.864
550.787
550.675
550.539
550.45
550.513
550.587
550.419
550.38
550.503
550.8
551.626
551.194
550.837
551.331
550.941
550.496
550.31
550.327
550.476
550.713
550.869
550.898
550.791
550.441
549.853
549.106
548.419
547.933
547.597
547.366
547.212
547.081
547.095
547.171
547.428
547.527
547.58
547.848
547.823
547.658
547.734
548.035
548.109
548.16
547.881
547.676
547.863
548.199
548.736
548.514
548.141
547.951
548.217
548.323
548.546
548.839
548.743
548.646
548.538
548.409
548.195
547.681
547.518
548.288
548.715
549.021
548.371
547.445
547.507
548.482
549.305
550.013
549.487
548.98
549.193
549.377
549.5
550.303
550.096
549.819
550.477
550.823
551.109
551.805
551.496
551.087
550.51
549.571
548.65
547.646
547.885
548.828
549.805
549.971
548.841
547.94
547.294
551.253
550.958
551.585
552.145
552.416
553.122
553.04
552.122
552.32
551.568
553.798
553.668
554.908
553.741
553.229
552.78
552.436
551.829
551.171
550.39
549.619
549.083
548.965
549.129
549.484
550.192
550.662
550.879
550.827
550.482
549.874
549.616
550.29
550.763
550.989
550.931
550.901
550.821
550.619
550.387
550.543
550.772
550.904
551.017
550.944
550.762
551.003
551.118
551.152
551.047
550.724
550.181
549.557
549.827
550.232
550.734
550.969
550.691
550.489
551.182
551.231
551.344
551.481
551.232
551.127
551.309
551.302
551.199
551.395
551.433
551.401
551.591
551.612
551.581
551.541
551.32
551.038
550.821
550.519
550.331
550.272
550.295
550.582
550.363
550.241
550.338
550.315
550.47
550.609
550.865
550.734
551.069
551.203
551.496
551.429
551.787
551.769
551.731
551.739
551.747
551.727
551.684
551.69
551.725
551.798
552.239
552.013
551.855
551.862
552.104
552.435
552.569
552.085
551.773
551.611
551.72
551.765
551.741
551.778
551.825
551.899
551.784
551.68
551.571
551.702
551.901
551.862
551.562
551.437
551.468
551.663
552.021
552.666
551.808
552.021
552.111
552.048
551.987
551.863
551.964
552.061
552.285
552.141
552.278
552.481
552.702
552.388
552.274
552.607
)
;

boundaryField
{
    bottom
    {
        type            symmetryPlane;
    }
    inlet1
    {
        type            fixedValue;
        value           nonuniform List<scalar> 0();
    }
    outlet1
    {
        type            zeroGradient;
    }
    top
    {
        type            zeroGradient;
    }
    wall1
    {
        type            zeroGradient;
    }
    bottomEmptyFaces
    {
        type            empty;
    }
    topEmptyFaces
    {
        type            empty;
    }
    procBoundary1to0
    {
        type            processor;
        value           nonuniform List<scalar> 
17
(
554.512
551.998
551.812
551.476
551.081
550.731
550.532
550.507
550.684
550.983
551.401
551.836
552.226
552.511
552.755
553.102
553.028
)
;
    }
    procBoundary1to2
    {
        type            processor;
        value           nonuniform List<scalar> 
17
(
546.999
546.999
546.526
546.36
546.826
546.374
546.199
546.626
546.527
546.618
546.874
546.874
547.088
547.088
546.842
547.106
547.106
)
;
    }
    procBoundary1to5
    {
        type            processor;
        value           nonuniform List<scalar> 
18
(
546.657
547.003
547.437
547.964
548.566
549.188
549.728
550.144
550.45
550.617
550.627
550.543
550.485
550.549
550.757
551.077
551.419
551.727
)
;
    }
}


// ************************************************************************* //
