/*--------------------------------*- C++ -*----------------------------------*\
| =========                 |                                                 |
| \\      /  F ield         | OpenFOAM: The Open Source CFD Toolbox           |
|  \\    /   O peration     | Version:  2306                                  |
|   \\  /    A nd           | Website:  www.openfoam.com                      |
|    \\/     M anipulation  |                                                 |
\*---------------------------------------------------------------------------*/
FoamFile
{
    version     2.0;
    format      ascii;
    arch        "LSB;label=32;scalar=64";
    class       volVectorField;
    location    "0.2";
    object      U;
}
// * * * * * * * * * * * * * * * * * * * * * * * * * * * * * * * * * * * * * //

dimensions      [0 1 -1 0 0 0 0];

internalField   nonuniform List<vector> 
290
(
(247.361 68.9486 0)
(245.089 67.2673 0)
(242.482 66.8584 0)
(239.303 66.0403 0)
(236.514 64.02 0)
(233.014 63.8724 0)
(227.079 56.5537 0)
(218.601 48.2296 0)
(211.251 38.4148 0)
(218.761 30.3613 0)
(226.118 31.8067 0)
(230.152 31.6942 0)
(232.791 31.6524 0)
(234.507 31.5997 0)
(235.779 31.6049 0)
(236.623 31.5961 0)
(237.212 31.5082 0)
(237.434 31.3288 0)
(237.309 31.3718 0)
(236.608 30.8021 0)
(235.353 30.2914 0)
(233.375 29.1509 0)
(247.404 46.2878 0)
(248.829 47.4508 0)
(250.477 48.4372 0)
(248.718 49.1343 0)
(246.91 48.1452 0)
(245.31 46.9991 0)
(243.994 45.6887 0)
(246.264 44.9048 0)
(244.729 39.7589 0)
(244.994 41.5168 0)
(245.457 43.2985 0)
(243.022 44.1504 0)
(242.485 42.3564 0)
(242.368 40.4146 0)
(242.399 38.5767 0)
(244.456 38.208 0)
(242.469 34.5553 0)
(243.317 35.6693 0)
(244.028 36.8691 0)
(242.304 36.9803 0)
(241.933 35.6113 0)
(241.316 34.3931 0)
(240.51 33.2629 0)
(241.486 33.4921 0)
(239.4 29.9631 0)
(239.77 31.3213 0)
(240.458 32.4711 0)
(239.556 32.2451 0)
(238.716 31.2761 0)
(238.238 30.1826 0)
(238.129 28.8249 0)
(239.411 28.4021 0)
(240.364 25.2606 0)
(239.776 26.7747 0)
(238.509 27.2161 0)
(239.299 25.5434 0)
(237.623 25.8631 0)
(236.784 27.4981 0)
(236.584 28.8461 0)
(236.778 29.9311 0)
(237.322 30.8935 0)
(238.087 31.8398 0)
(238.774 32.8998 0)
(239.269 34.111 0)
(239.617 35.4909 0)
(239.694 37.0954 0)
(239.515 38.9762 0)
(239.326 41.077 0)
(239.558 43.1177 0)
(240.341 44.8799 0)
(241.556 46.3907 0)
(243.11 47.7469 0)
(244.945 48.9474 0)
(246.95 50.0102 0)
(245.543 54.7698 0)
(246.245 53.4657 0)
(245.442 50.9457 0)
(243.212 49.7152 0)
(241.119 48.3807 0)
(239.687 48.9566 0)
(242.003 50.3976 0)
(244.375 51.8123 0)
(243.752 52.7893 0)
(241.316 51.0841 0)
(238.801 49.4886 0)
(236.455 47.9043 0)
(237.563 47.4395 0)
(239.276 46.9355 0)
(237.788 45.3575 0)
(236.705 43.6716 0)
(236.152 41.7034 0)
(233.547 42.2262 0)
(234.437 44.0566 0)
(235.8 45.7802 0)
(234.508 46.1659 0)
(232.938 44.406 0)
(231.831 42.5658 0)
(230.826 42.9823 0)
(232.04 44.9121 0)
(233.843 46.718 0)
(236.007 48.5354 0)
(238.643 50.1522 0)
(241.186 52.0172 0)
(243.483 54.0737 0)
(243.309 55.7165 0)
(241.183 53.4012 0)
(238.827 51.1976 0)
(239.133 52.8496 0)
(241.272 55.3546 0)
(243.405 57.779 0)
(243.661 60.2187 0)
(241.316 57.8714 0)
(239.326 55.1504 0)
(236.506 52.6832 0)
(236.363 50.7084 0)
(236.064 49.3847 0)
(233.768 47.3984 0)
(231.757 45.5248 0)
(230.384 43.4922 0)
(230.37 44.1381 0)
(231.91 46.3276 0)
(234.072 48.3817 0)
(234.413 49.7831 0)
(232.147 47.3386 0)
(230.589 44.7993 0)
(230.56 45.2692 0)
(231.869 48.5329 0)
(234.142 51.6358 0)
(236.012 55.1919 0)
(238.881 57.861 0)
(241.008 60.5548 0)
(243.545 62.7073 0)
(243.964 64.678 0)
(240.706 63.0486 0)
(237.998 60.4801 0)
(237.594 63.3208 0)
(241.178 65.568 0)
(244.251 66.8474 0)
(246.726 68.5444 0)
(232.598 60.6056 0)
(234.443 57.8413 0)
(232.681 53.6905 0)
(230.308 49.9568 0)
(229.81 45.5473 0)
(228.094 44.9214 0)
(226.543 50.3514 0)
(230.016 54.8203 0)
(227.83 56.4348 0)
(231.435 62.7253 0)
(221.677 50.649 0)
(223.986 43.3697 0)
(217.822 39.361 0)
(225.404 35.2901 0)
(226.775 38.7242 0)
(228.376 40.7082 0)
(229.674 41.8838 0)
(230.036 42.4017 0)
(229.767 42.2994 0)
(229.369 41.9647 0)
(229.398 41.5396 0)
(230.079 41.0169 0)
(231.215 40.5812 0)
(233.258 40.0598 0)
(236.221 39.4705 0)
(236.543 37.3051 0)
(236.694 35.4465 0)
(236.546 33.8756 0)
(233.85 33.6909 0)
(233.827 35.5044 0)
(233.525 37.6815 0)
(231.263 38.3056 0)
(231.582 35.998 0)
(231.725 33.9305 0)
(231.56 32.1933 0)
(233.63 32.188 0)
(236.255 32.5226 0)
(235.838 31.3456 0)
(235.28 30.3451 0)
(234.742 29.4497 0)
(232.339 28.7869 0)
(232.851 29.7649 0)
(233.294 30.8914 0)
(231.22 30.7149 0)
(230.762 29.4166 0)
(230.222 28.2753 0)
(228.949 28.0325 0)
(229.493 29.4114 0)
(229.944 30.8959 0)
(230.237 32.5352 0)
(230.267 34.4554 0)
(230.026 36.6214 0)
(229.876 38.8619 0)
(229.031 39.481 0)
(229.09 37.3103 0)
(229.445 35.172 0)
(229.141 35.8812 0)
(228.802 37.9437 0)
(228.882 39.9177 0)
(229.378 40.056 0)
(229.285 37.9619 0)
(229.653 35.9292 0)
(229.884 33.997 0)
(229.334 33.8447 0)
(229.583 33.2019 0)
(229.447 31.4383 0)
(228.95 29.8058 0)
(228.315 28.2924 0)
(228.377 28.8234 0)
(228.923 30.392 0)
(229.352 32.0515 0)
(230.091 32.3092 0)
(229.782 30.7307 0)
(229.33 29.2143 0)
(228.621 27.7254 0)
(227.652 27.3095 0)
(227.618 26.9123 0)
(228.319 26.7993 0)
(229.688 27.2553 0)
(231.964 27.8626 0)
(234.484 28.499 0)
(234.583 27.3771 0)
(235.262 25.9163 0)
(232.374 25.6042 0)
(231.938 26.8575 0)
(229.402 26.245 0)
(229.54 25.0506 0)
(227.528 24.5731 0)
(227.787 25.6787 0)
(227.043 25.6009 0)
(226.588 24.3215 0)
(226.287 24.3773 0)
(226.97 25.8118 0)
(227.911 26.1786 0)
(227.049 24.6661 0)
(228.928 25.0846 0)
(229.733 26.5967 0)
(230.355 28.0722 0)
(230.99 29.4157 0)
(231.3 30.7967 0)
(231.468 32.289 0)
(231.101 33.9258 0)
(230.791 35.7853 0)
(230.155 37.7501 0)
(230.023 39.9389 0)
(230.377 39.1545 0)
(230.976 36.8852 0)
(231.956 35.073 0)
(232.966 34.1903 0)
(231.658 35.6262 0)
(230.358 37.7032 0)
(229.695 35.7081 0)
(232.134 34.1628 0)
(233.659 33.0485 0)
(234.78 32.2034 0)
(233.764 32.8742 0)
(232.482 33.4691 0)
(232.961 32.0925 0)
(232.911 30.7538 0)
(232.714 29.4931 0)
(233.987 29.3811 0)
(234.265 30.4881 0)
(234.264 31.6594 0)
(235.327 31.4051 0)
(235.43 30.7014 0)
(235.004 29.9379 0)
(236.198 30.4507 0)
(236.527 30.9817 0)
(236.201 31.366 0)
(235.477 31.8045 0)
(234.255 32.2188 0)
(232.567 32.7631 0)
(229.782 33.4687 0)
(236.713 31.1908 0)
(235.743 30.85 0)
(235.128 29.5532 0)
(234.153 28.8788 0)
(233.351 28.2664 0)
(232.14 28.29 0)
(231.592 26.9835 0)
(230.954 25.5728 0)
(232.013 25.6902 0)
(232.646 27.0375 0)
(232.942 27.7085 0)
(232.023 26.176 0)
(231.604 27.0438 0)
(233.494 28.567 0)
(234.145 30.3138 0)
(231.845 29.1186 0)
)
;

boundaryField
{
    bottom
    {
        type            symmetryPlane;
    }
    inlet1
    {
        type            fixedValue;
        value           nonuniform List<vector> 0();
    }
    outlet1
    {
        type            zeroGradient;
    }
    top
    {
        type            zeroGradient;
    }
    wall1
    {
        type            slip;
    }
    bottomEmptyFaces
    {
        type            empty;
    }
    topEmptyFaces
    {
        type            empty;
    }
    procBoundary1to0
    {
        type            processor;
        value           nonuniform List<vector> 
17
(
(229.715 26.8423 0)
(241.015 23.9305 0)
(240.222 24.0172 0)
(238.756 24.1982 0)
(236.492 24.2624 0)
(233.469 24.04 0)
(230.224 23.5873 0)
(227.741 23.1685 0)
(226.511 22.8871 0)
(225.974 22.8551 0)
(226.41 23.0795 0)
(228.156 23.4984 0)
(230.198 23.9774 0)
(231.147 24.2435 0)
(230.831 24.4768 0)
(229.38 24.7936 0)
(228.603 26.9098 0)
)
;
    }
    procBoundary1to2
    {
        type            processor;
        value           nonuniform List<vector> 
17
(
(249.065 68.7194 0)
(249.065 68.7194 0)
(250.554 50.0313 0)
(252.233 49.3117 0)
(248.865 51.0595 0)
(247.66 55.2556 0)
(247.034 56.8167 0)
(245.875 62.5202 0)
(245.449 60.1383 0)
(245.145 58.0709 0)
(245.203 56.2703 0)
(245.203 56.2703 0)
(247.398 52.2672 0)
(247.398 52.2672 0)
(246.268 64.8532 0)
(246.915 66.9762 0)
(246.915 66.9762 0)
)
;
    }
    procBoundary1to5
    {
        type            processor;
        value           nonuniform List<vector> 
18
(
(252.026 47.9606 0)
(250.469 46.8025 0)
(249.148 45.4762 0)
(248.1 43.9708 0)
(247.335 42.3108 0)
(246.775 40.6309 0)
(246.261 39.1077 0)
(245.675 37.7716 0)
(244.961 36.5973 0)
(244.077 35.5536 0)
(243.12 34.573 0)
(242.093 33.5571 0)
(241.214 32.3868 0)
(240.612 31.0232 0)
(240.353 29.4632 0)
(240.377 27.8289 0)
(240.559 26.2971 0)
(240.871 24.9395 0)
)
;
    }
}


// ************************************************************************* //
